<?xml version="1.0" encoding="ISO-8859-1"?>
<modeling>
 <generator>
  <i name="program" type="string">vasp </i>
  <i name="version" type="string">6.1.0  </i>
  <i name="subversion" type="string">28Jan20 (build Mar 31 2020 17:42:31) gamma-only                       parallel </i>
  <i name="platform" type="string">LinuxIFC </i>
  <i name="date" type="string">2020 04 12 </i>
  <i name="time" type="string">21:27:17 </i>
 </generator>
 <incar>
  <i type="string" name="SYSTEM">"Millerite NiS"</i>
  <i type="int" name="NSIM">     4</i>
  <i type="int" name="NELM">   100</i>
  <i name="ENCUT">    450.00000000</i>
  <i type="string" name="LREAL">A</i>
  <i type="int" name="ISMEAR">     0</i>
  <i type="int" name="NWRITE">     2</i>
  <i type="logical" name="LWAVE"> F  </i>
  <i type="logical" name="LCHARG"> F  </i>
  <i type="int" name="NCORE">     6</i>
  <i type="int" name="NELM">   100</i>
 </incar>
 <structure name="primitive_cell" >
  <crystal>
   <varray name="basis" >
    <v>       8.70073080      -4.00539907       0.00000000 </v>
    <v>       0.00000000      11.45278367       0.00000000 </v>
    <v>       0.00000000       0.00000000      20.84683014 </v>
   </varray>
   <i name="volume">   2077.33633233 </i>
   <varray name="rec_basis" >
    <v>       0.11493287       0.00000000       0.00000000 </v>
    <v>       0.04019565       0.08731502       0.00000000 </v>
    <v>       0.00000000       0.00000000       0.04796892 </v>
   </varray>
  </crystal>
  <varray name="positions" >
   <v>       0.63793591       0.42904558       0.08004781 </v>
   <v>       0.72899292       0.61115959       0.20011952 </v>
   <v>       0.82004993       0.79327361       0.32019124 </v>
   <v>       0.91110694       0.97538762       0.44026296 </v>
   <v>       0.45636426       0.06590227       0.28016734 </v>
   <v>       0.54742127       0.24801628       0.40023905 </v>
   <v>       0.63847827       0.43013030       0.52031076 </v>
   <v>       0.27425024       0.70167424       0.04002390 </v>
   <v>       0.36530725       0.88378825       0.16009562 </v>
   <v>       0.00162158       0.15641692       0.12007172 </v>
   <v>       0.09267859       0.33853093       0.24014343 </v>
   <v>       0.18373560       0.52064495       0.36021514 </v>
   <v>       0.27479261       0.70275896       0.48028686 </v>
   <v>       0.91056458       0.97430290       0.00000000 </v>
   <v>       0.59499452       0.07895679       0.02342343 </v>
   <v>       0.68605153       0.26107081       0.14349515 </v>
   <v>       0.77710854       0.44318482       0.26356686 </v>
   <v>       0.86816554       0.62529884       0.38363857 </v>
   <v>       0.95922255       0.80741285       0.50371029 </v>
   <v>       0.59553688       0.08004151       0.46368639 </v>
   <v>       0.32236586       0.53369947       0.10347124 </v>
   <v>       0.41342287       0.71581348       0.22354295 </v>
   <v>       0.50447988       0.89792750       0.34361467 </v>
   <v>       0.14079421       0.17055616       0.30359077 </v>
   <v>       0.23185121       0.35267018       0.42366248 </v>
   <v>       0.04973720       0.98844215       0.18351905 </v>
   <v>       0.95868019       0.80632813       0.06344733 </v>
   <v>       0.08425593       0.79327361       0.32019124 </v>
   <v>       0.90214191       0.42904558       0.08004781 </v>
   <v>       0.99319892       0.61115959       0.20011952 </v>
   <v>       0.72057026       0.06590227       0.28016734 </v>
   <v>       0.81162727       0.24801628       0.40023905 </v>
   <v>       0.53845624       0.70167424       0.04002390 </v>
   <v>       0.62951325       0.88378825       0.16009562 </v>
   <v>       0.26582758       0.15641692       0.12007172 </v>
   <v>       0.35688459       0.33853093       0.24014343 </v>
   <v>       0.44794160       0.52064495       0.36021514 </v>
   <v>       0.53899861       0.70275896       0.48028686 </v>
   <v>       0.17477058       0.97430290       0.00000000 </v>
   <v>       0.01340710       0.57935194       0.31115216 </v>
   <v>       0.10446410       0.76146596       0.43122388 </v>
   <v>       0.83129308       0.21512391       0.07100873 </v>
   <v>       0.92235009       0.39723793       0.19108045 </v>
   <v>       0.74077844       0.03409462       0.39119997 </v>
   <v>       0.83183544       0.21620863       0.51127169 </v>
   <v>       0.46760741       0.48775257       0.03098483 </v>
   <v>       0.55866442       0.66986659       0.15105654 </v>
   <v>       0.64972143       0.85198060       0.27112826 </v>
   <v>       0.28603576       0.12460926       0.23110435 </v>
   <v>       0.37709277       0.30672328       0.35117607 </v>
   <v>       0.46814977       0.48883730       0.47124778 </v>
   <v>       0.19497875       0.94249525       0.11103264 </v>
   <v>       0.13425249       0.15747274       0.47050414 </v>
   <v>       0.04319549       0.97535872       0.35043242 </v>
   <v>       0.86108147       0.61113069       0.11028899 </v>
   <v>       0.95213848       0.79324471       0.23036071 </v>
   <v>       0.58845281       0.06587337       0.19033680 </v>
   <v>       0.67950982       0.24798738       0.31040852 </v>
   <v>       0.77056683       0.43010140       0.43048023 </v>
   <v>       0.49739580       0.88375935       0.07026509 </v>
   <v>       0.13371013       0.15638801       0.03024118 </v>
   <v>       0.22476714       0.33850203       0.15031290 </v>
   <v>       0.31582415       0.52061604       0.27038461 </v>
   <v>       0.40688116       0.70273006       0.39045633 </v>
   <v>       0.49793816       0.88484407       0.51052804 </v>
   <v>       0.49486308       0.21512391       0.07100873 </v>
   <v>       0.58592009       0.39723793       0.19108045 </v>
   <v>       0.67697710       0.57935194       0.31115216 </v>
   <v>       0.76803410       0.76146596       0.43122388 </v>
   <v>       0.40434844       0.03409462       0.39119997 </v>
   <v>       0.49540544       0.21620863       0.51127169 </v>
   <v>       0.13117741       0.48775257       0.03098483 </v>
   <v>       0.22223442       0.66986659       0.15105654 </v>
   <v>       0.31329143       0.85198060       0.27112826 </v>
   <v>       0.04066277       0.30672328       0.35117607 </v>
   <v>       0.13171977       0.48883730       0.47124778 </v>
   <v>       0.94960576       0.12460926       0.23110435 </v>
   <v>       0.85854875       0.94249525       0.11103264 </v>
  </varray>
 </structure>
 <varray name="primitive_index" >
  <v type="int" >        1 </v>
  <v type="int" >        2 </v>
  <v type="int" >        3 </v>
  <v type="int" >        4 </v>
  <v type="int" >        5 </v>
  <v type="int" >        6 </v>
  <v type="int" >        7 </v>
  <v type="int" >        8 </v>
  <v type="int" >        9 </v>
  <v type="int" >       10 </v>
  <v type="int" >       11 </v>
  <v type="int" >       12 </v>
  <v type="int" >       13 </v>
  <v type="int" >       14 </v>
  <v type="int" >       15 </v>
  <v type="int" >       16 </v>
  <v type="int" >       17 </v>
  <v type="int" >       18 </v>
  <v type="int" >       19 </v>
  <v type="int" >       20 </v>
  <v type="int" >       21 </v>
  <v type="int" >       22 </v>
  <v type="int" >       23 </v>
  <v type="int" >       24 </v>
  <v type="int" >       25 </v>
  <v type="int" >       26 </v>
  <v type="int" >       27 </v>
  <v type="int" >       28 </v>
  <v type="int" >       29 </v>
  <v type="int" >       30 </v>
  <v type="int" >       31 </v>
  <v type="int" >       32 </v>
  <v type="int" >       33 </v>
  <v type="int" >       34 </v>
  <v type="int" >       35 </v>
  <v type="int" >       36 </v>
  <v type="int" >       37 </v>
  <v type="int" >       38 </v>
  <v type="int" >       39 </v>
  <v type="int" >       40 </v>
  <v type="int" >       41 </v>
  <v type="int" >       42 </v>
  <v type="int" >       43 </v>
  <v type="int" >       44 </v>
  <v type="int" >       45 </v>
  <v type="int" >       46 </v>
  <v type="int" >       47 </v>
  <v type="int" >       48 </v>
  <v type="int" >       49 </v>
  <v type="int" >       50 </v>
  <v type="int" >       51 </v>
  <v type="int" >       52 </v>
  <v type="int" >       53 </v>
  <v type="int" >       54 </v>
  <v type="int" >       55 </v>
  <v type="int" >       56 </v>
  <v type="int" >       57 </v>
  <v type="int" >       58 </v>
  <v type="int" >       59 </v>
  <v type="int" >       60 </v>
  <v type="int" >       61 </v>
  <v type="int" >       62 </v>
  <v type="int" >       63 </v>
  <v type="int" >       64 </v>
  <v type="int" >       65 </v>
  <v type="int" >       66 </v>
  <v type="int" >       67 </v>
  <v type="int" >       68 </v>
  <v type="int" >       69 </v>
  <v type="int" >       70 </v>
  <v type="int" >       71 </v>
  <v type="int" >       72 </v>
  <v type="int" >       73 </v>
  <v type="int" >       74 </v>
  <v type="int" >       75 </v>
  <v type="int" >       76 </v>
  <v type="int" >       77 </v>
  <v type="int" >       78 </v>
 </varray>
 <kpoints>
  <generation param="Gamma">
   <v type="int" name="divisions">       1        1        1 </v>
   <v name="usershift">      0.00000000       0.00000000       0.00000000 </v>
   <v name="genvec1">      1.00000000       0.00000000       0.00000000 </v>
   <v name="genvec2">      0.00000000       1.00000000       0.00000000 </v>
   <v name="genvec3">      0.00000000       0.00000000       1.00000000 </v>
   <v name="shift">      0.00000000       0.00000000       0.00000000 </v>
  </generation>
  <varray name="kpointlist" >
   <v>       0.00000000       0.00000000       0.00000000 </v>
  </varray>
  <varray name="weights" >
   <v>       1.00000000 </v>
  </varray>
 </kpoints>
 <parameters>
  <separator name="general" >
   <i type="string" name="SYSTEM">"Millerite NiS"</i>
   <i type="logical" name="LCOMPAT"> F  </i>
  </separator>
  <separator name="electronic" >
   <i type="string" name="PREC">normal</i>
   <i name="ENMAX">    450.00000000</i>
   <i name="ENAUG">    703.44300000</i>
   <i name="EDIFF">      0.00010000</i>
   <i type="int" name="IALGO">    38</i>
   <i type="int" name="IWAVPR">    10</i>
   <i type="int" name="NBANDS">   520</i>
   <i type="int" name="NBANDSLOW">    -1</i>
   <i type="int" name="NBANDSHIGH">    -1</i>
   <i name="NELECT">    858.00000000</i>
   <i type="int" name="TURBO">     0</i>
   <i type="int" name="IRESTART">     0</i>
   <i type="int" name="NREBOOT">     0</i>
   <i type="int" name="NMIN">     0</i>
   <i name="EREF">      0.00000000</i>
   <separator name="electronic smearing" >
    <i type="int" name="ISMEAR">     0</i>
    <i name="SIGMA">      0.20000000</i>
    <i name="KSPACING">      0.50000000</i>
    <i type="logical" name="KGAMMA"> T  </i>
    <i type="logical" name="KBLOWUP"> T  </i>
   </separator>
   <separator name="electronic projectors" >
    <i type="logical" name="LREAL"> T  </i>
    <v name="ROPT">     -0.00050000     -0.00050000</v>
    <i type="int" name="LMAXPAW">  -100</i>
    <i type="int" name="LMAXMIX">     2</i>
    <i type="logical" name="NLSPLINE"> F  </i>
   </separator>
   <separator name="electronic startup" >
    <i type="int" name="ISTART">     0</i>
    <i type="int" name="ICHARG">     2</i>
    <i type="int" name="INIWAV">     1</i>
   </separator>
   <separator name="electronic spin" >
    <i type="int" name="ISPIN">     1</i>
    <i type="logical" name="LNONCOLLINEAR"> F  </i>
    <v name="MAGMOM">      1.00000000      1.00000000      1.00000000      1.00000000      1.00000000      1.00000000      1.00000000      1.00000000      1.00000000      1.00000000      1.00000000      1.00000000      1.00000000      1.00000000      1.00000000      1.00000000      1.00000000      1.00000000      1.00000000      1.00000000
      1.00000000      1.00000000      1.00000000      1.00000000      1.00000000      1.00000000      1.00000000      1.00000000      1.00000000      1.00000000      1.00000000      1.00000000      1.00000000      1.00000000      1.00000000      1.00000000      1.00000000      1.00000000      1.00000000      1.00000000
      1.00000000      1.00000000      1.00000000      1.00000000      1.00000000      1.00000000      1.00000000      1.00000000      1.00000000      1.00000000      1.00000000      1.00000000      1.00000000      1.00000000      1.00000000      1.00000000      1.00000000      1.00000000      1.00000000      1.00000000
      1.00000000      1.00000000      1.00000000      1.00000000      1.00000000      1.00000000      1.00000000      1.00000000      1.00000000      1.00000000      1.00000000      1.00000000      1.00000000      1.00000000      1.00000000      1.00000000      1.00000000      1.00000000</v>
    <i name="NUPDOWN">     -1.00000000</i>
    <i type="logical" name="LSORBIT"> F  </i>
    <v name="SAXIS">      0.00000000      0.00000000      1.00000000</v>
    <i type="logical" name="LSPIRAL"> F  </i>
    <v name="QSPIRAL">      0.00000000      0.00000000      0.00000000</v>
    <i type="logical" name="LZEROZ"> F  </i>
   </separator>
   <separator name="electronic exchange-correlation" >
    <i type="logical" name="LASPH"> F  </i>
    <i type="logical" name="LMETAGGA"> F  </i>
   </separator>
   <separator name="electronic convergence" >
    <i type="int" name="NELM">   100</i>
    <i type="int" name="NELMDL">    -5</i>
    <i type="int" name="NELMIN">     2</i>
    <i name="ENINI">    450.00000000</i>
    <separator name="electronic convergence detail" >
     <i type="logical" name="LDIAG"> T  </i>
     <i type="logical" name="LSUBROT"> F  </i>
     <i name="WEIMIN">      0.00000000</i>
     <i name="EBREAK">      0.00000005</i>
     <i name="DEPER">      0.30000000</i>
     <i type="int" name="NRMM">     4</i>
     <i name="TIME">      0.40000000</i>
    </separator>
   </separator>
   <separator name="electronic mixer" >
    <i name="AMIX">      0.40000000</i>
    <i name="BMIX">      1.00000000</i>
    <i name="AMIN">      0.10000000</i>
    <i name="AMIX_MAG">      1.60000000</i>
    <i name="BMIX_MAG">      1.00000000</i>
    <separator name="electronic mixer details" >
     <i type="int" name="IMIX">     4</i>
     <i type="logical" name="MIXFIRST"> F  </i>
     <i type="int" name="MAXMIX">   -45</i>
     <i name="WC">    100.00000000</i>
     <i type="int" name="INIMIX">     1</i>
     <i type="int" name="MIXPRE">     1</i>
     <i type="int" name="MREMOVE">     5</i>
    </separator>
   </separator>
   <separator name="electronic dipolcorrection" >
    <i type="logical" name="LDIPOL"> F  </i>
    <i type="logical" name="LMONO"> F  </i>
    <i type="int" name="IDIPOL">     0</i>
    <i name="EPSILON">      1.00000000</i>
    <v name="DIPOL">   -100.00000000   -100.00000000   -100.00000000</v>
    <i name="EFIELD">      0.00000000</i>
   </separator>
  </separator>
  <separator name="grids" >
   <i type="int" name="NGX">    50</i>
   <i type="int" name="NGY">    60</i>
   <i type="int" name="NGZ">   108</i>
   <i type="int" name="NGXF">   100</i>
   <i type="int" name="NGYF">   120</i>
   <i type="int" name="NGZF">   216</i>
   <i type="logical" name="ADDGRID"> F  </i>
  </separator>
  <separator name="ionic" >
   <i type="int" name="NSW">     0</i>
   <i type="int" name="IBRION">    -1</i>
   <i type="int" name="MDALGO">     0</i>
   <i type="int" name="ISIF">     2</i>
   <i name="PSTRESS">      0.00000000</i>
   <i name="EDIFFG">      0.00100000</i>
   <i type="int" name="NFREE">     0</i>
   <i name="POTIM">      0.50000000</i>
   <i name="SMASS">     -3.00000000</i>
   <i name="SCALEE">      1.00000000</i>
  </separator>
  <separator name="ionic md" >
   <i name="TEBEG">      0.00010000</i>
   <i name="TEEND">      0.00010000</i>
   <i type="int" name="NBLOCK">     1</i>
   <i type="int" name="KBLOCK">     1</i>
   <i type="int" name="NPACO">   256</i>
   <i name="APACO">     16.00000000</i>
  </separator>
  <separator name="symmetry" >
   <i type="int" name="ISYM">     2</i>
   <i name="SYMPREC">      0.00001000</i>
  </separator>
  <separator name="dos" >
   <i type="int" name="LORBIT">     0</i>
   <v name="RWIGS">     -1.00000000     -1.00000000</v>
   <i type="int" name="NEDOS">   301</i>
   <i name="EMIN">     10.00000000</i>
   <i name="EMAX">    -10.00000000</i>
   <i name="EFERMI">      0.00000000</i>
  </separator>
  <separator name="writing" >
   <i type="int" name="NWRITE">     2</i>
   <i type="logical" name="LWAVE"> F  </i>
   <i type="logical" name="LDOWNSAMPLE"> F  </i>
   <i type="logical" name="LCHARG"> F  </i>
   <i type="logical" name="LPARD"> F  </i>
   <i type="logical" name="LVTOT"> F  </i>
   <i type="logical" name="LVHAR"> F  </i>
   <i type="logical" name="LELF"> F  </i>
   <i type="logical" name="LOPTICS"> F  </i>
   <v name="STM">      0.00000000      0.00000000      0.00000000      0.00000000      0.00000000      0.00000000      0.00000000</v>
  </separator>
  <separator name="performance" >
   <i type="int" name="NPAR">     8</i>
   <i type="int" name="NSIM">     4</i>
   <i type="int" name="NBLK">    -1</i>
   <i type="logical" name="LPLANE"> T  </i>
   <i type="logical" name="LSCALAPACK"> T  </i>
   <i type="logical" name="LSCAAWARE"> F  </i>
   <i type="logical" name="LSCALU"> F  </i>
   <i type="logical" name="LASYNC"> F  </i>
   <i type="logical" name="LORBITALREAL"> F  </i>
  </separator>
  <separator name="miscellaneous" >
   <i type="int" name="IDIOT">     3</i>
   <i type="int" name="PHON_NSTRUCT">    -1</i>
   <i type="logical" name="LMUSIC"> F  </i>
   <v name="POMASS">     58.69000000     32.06600000</v>
   <v name="DARWINR">      0.00000000      0.00000000</v>
   <v name="DARWINV">      1.00000000      1.00000000</v>
   <i type="logical" name="LCORR"> T  </i>
  </separator>
  <i type="logical" name="GGA_COMPAT"> T  </i>
  <i type="logical" name="LBERRY"> F  </i>
  <i type="int" name="ICORELEVEL">     0</i>
  <i type="logical" name="LDAU"> F  </i>
  <i type="int" name="I_CONSTRAINED_M">     0</i>
  <separator name="electronic exchange-correlation" >
   <i type="string" name="GGA">--</i>
   <i type="int" name="VOSKOWN">     0</i>
   <i type="logical" name="LHFCALC"> F  </i>
   <i type="string" name="PRECFOCK"></i>
   <i type="logical" name="LSYMGRAD"> F  </i>
   <i type="logical" name="LHFONE"> F  </i>
   <i type="logical" name="LRHFCALC"> F  </i>
   <i type="logical" name="LTHOMAS"> F  </i>
   <i type="logical" name="LMODELHF"> F  </i>
   <i type="logical" name="LFOCKACE"> F  </i>
   <i name="ENCUT4O">     -1.00000000</i>
   <i type="int" name="EXXOEP">     0</i>
   <i type="int" name="FOURORBIT">     0</i>
   <i name="AEXX">      0.00000000</i>
   <i name="HFALPHA">      0.00000000</i>
   <i name="MCALPHA">      0.00000000</i>
   <i name="ALDAX">      1.00000000</i>
   <i name="AGGAX">      1.00000000</i>
   <i name="ALDAC">      1.00000000</i>
   <i name="AGGAC">      1.00000000</i>
   <i type="int" name="NKREDX">     1</i>
   <i type="int" name="NKREDY">     1</i>
   <i type="int" name="NKREDZ">     1</i>
   <i type="logical" name="SHIFTRED"> F  </i>
   <i type="logical" name="ODDONLY"> F  </i>
   <i type="logical" name="EVENONLY"> F  </i>
   <i type="int" name="LMAXFOCK">     0</i>
   <i type="int" name="NMAXFOCKAE">     0</i>
   <i type="logical" name="LFOCKAEDFT"> F  </i>
   <i name="HFSCREEN">      0.00000000</i>
   <i name="HFSCREENC">      0.00000000</i>
   <i type="int" name="NBANDSGWLOW">     0</i>
  </separator>
  <separator name="vdW DFT" >
   <i type="logical" name="LUSE_VDW"> F  </i>
   <i name="Zab_VDW">     -0.84910000</i>
   <i name="PARAM1">      0.12340000</i>
   <i name="PARAM2">      1.00000000</i>
   <i name="PARAM3">      0.00000000</i>
  </separator>
  <separator name="model GW" >
   <i type="int" name="MODEL_GW">     0</i>
   <i name="MODEL_EPS0">     15.97951025</i>
   <i name="MODEL_ALPHA">      1.00000000</i>
  </separator>
  <separator name="linear response parameters" >
   <i type="logical" name="LEPSILON"> F  </i>
   <i type="logical" name="LRPA"> F  </i>
   <i type="logical" name="LNABLA"> F  </i>
   <i type="logical" name="LVEL"> F  </i>
   <i type="int" name="KINTER">     0</i>
   <i name="CSHIFT">      0.10000000</i>
   <i name="OMEGAMAX">     -1.00000000</i>
   <i name="DEG_THRESHOLD">      0.00200000</i>
   <i name="RTIME">     -0.10000000</i>
   <i name="WPLASMAI">      0.00000000</i>
   <v name="DFIELD">      0.00000000      0.00000000      0.00000000</v>
   <v name="WPLASMA">      0.00000000      0.00000000      0.00000000      0.00000000      0.00000000      0.00000000      0.00000000      0.00000000      0.00000000</v>
  </separator>
  <separator name="orbital magnetization" >
   <i type="logical" name="NUCIND"> F  </i>
   <v name="MAGPOS">      0.00000000      0.00000000      0.00000000</v>
   <i type="logical" name="LNICSALL"> T  </i>
   <i type="logical" name="ORBITALMAG"> F  </i>
   <i type="logical" name="LMAGBLOCH"> F  </i>
   <i type="logical" name="LCHIMAG"> F  </i>
   <i type="logical" name="LGAUGE"> T  </i>
   <i type="int" name="MAGATOM">     0</i>
   <v name="MAGDIPOL">      0.00000000      0.00000000      0.00000000</v>
   <v name="AVECCONST">      0.00000000      0.00000000      0.00000000</v>
  </separator>
  <separator name="response functions" >
   <i type="logical" name="LFINITE_TEMPERATURE"> F  </i>
   <i type="logical" name="LADDER"> F  </i>
   <i type="logical" name="LRPAFORCE"> F  </i>
   <i type="logical" name="LFXC"> F  </i>
   <i type="logical" name="LHARTREE"> T  </i>
   <i type="int" name="IBSE">     0</i>
   <v type="int" name="KPOINT">    -1     0     0     0</v>
   <i type="logical" name="LTCTC"> F  </i>
   <i type="logical" name="LTCTE"> F  </i>
   <i type="logical" name="LTETE"> F  </i>
   <i type="logical" name="LTRIPLET"> F  </i>
   <i type="logical" name="LFXCEPS"> F  </i>
   <i type="logical" name="LFXHEG"> F  </i>
   <i type="int" name="NATURALO">     2</i>
   <i type="logical" name="LHOLEGF"> F  </i>
   <i type="logical" name="L2ORDER"> F  </i>
   <i type="logical" name="LDMP1"> F  </i>
   <i type="logical" name="LMP2LT"> F  </i>
   <i type="logical" name="LSMP2LT"> F  </i>
   <i type="logical" name="LGWLF"> F  </i>
   <i name="ENCUTGW">     -2.00000000</i>
   <i name="ENCUTGWSOFT">     -2.00000000</i>
   <i name="ENCUTLF">     -1.00000000</i>
   <i type="logical" name="LESF_SPLINES"> F  </i>
   <i type="int" name="LMAXMP2">    -1</i>
   <i name="SCISSOR">      0.00000000</i>
   <i type="int" name="NOMEGA">     0</i>
   <i type="int" name="NOMEGAR">     0</i>
   <i type="int" name="NBANDSGW">    -1</i>
   <i type="int" name="NBANDSO">    -1</i>
   <i type="int" name="NBANDSV">    -1</i>
   <i type="int" name="NELM">   100</i>
   <i type="int" name="NELMHF">     1</i>
   <i type="int" name="DIM">     3</i>
   <i type="int" name="IESPILON">     4</i>
   <i type="int" name="ANTIRES">     0</i>
   <i name="OMEGAMAX">    -30.00000000</i>
   <i name="OMEGAMIN">    -30.00000000</i>
   <i name="OMEGATL">   -200.00000000</i>
   <i type="int" name="OMEGAGRID">     0</i>
   <i name="CSHIFT">     -0.10000000</i>
   <i type="logical" name="LSELFENERGY"> F  </i>
   <i type="logical" name="LSPECTRAL"> F  </i>
   <i type="logical" name="LSPECTRALGW"> F  </i>
   <i type="logical" name="LSINGLES"> F  </i>
   <i type="logical" name="LFERMIGW"> F  </i>
   <i type="logical" name="ODDONLYGW"> F  </i>
   <i type="logical" name="EVENONLYGW"> F  </i>
   <i type="int" name="NKREDLFX">     1</i>
   <i type="int" name="NKREDLFY">     1</i>
   <i type="int" name="NKREDLFZ">     1</i>
   <i type="int" name="MAXMEM">  2800</i>
   <i type="int" name="TELESCOPE">     0</i>
   <i type="int" name="NTAUPAR">    -1</i>
   <i type="int" name="NOMEGAPAR">    -1</i>
   <i name="LAMBDA">      1.00000000</i>
  </separator>
  <separator name="External order field" >
   <i name="OFIELD_KAPPA">      0.00000000</i>
   <v name="OFIELD_K">      0.00000000      0.00000000      0.00000000</v>
   <i name="OFIELD_Q6_NEAR">      0.00000000</i>
   <i name="OFIELD_Q6_FAR">      0.00000000</i>
   <i name="OFIELD_A">      0.00000000</i>
  </separator>
 </parameters>
 <atominfo>
  <atoms>      78 </atoms>
  <types>       2 </types>
  <array name="atoms" >
   <dimension dim="1">ion</dimension>
   <field type="string">element</field>
   <field type="int">atomtype</field>
   <set>
    <rc><c>Ni</c><c>   1</c></rc>
    <rc><c>Ni</c><c>   1</c></rc>
    <rc><c>Ni</c><c>   1</c></rc>
    <rc><c>Ni</c><c>   1</c></rc>
    <rc><c>Ni</c><c>   1</c></rc>
    <rc><c>Ni</c><c>   1</c></rc>
    <rc><c>Ni</c><c>   1</c></rc>
    <rc><c>Ni</c><c>   1</c></rc>
    <rc><c>Ni</c><c>   1</c></rc>
    <rc><c>Ni</c><c>   1</c></rc>
    <rc><c>Ni</c><c>   1</c></rc>
    <rc><c>Ni</c><c>   1</c></rc>
    <rc><c>Ni</c><c>   1</c></rc>
    <rc><c>Ni</c><c>   1</c></rc>
    <rc><c>Ni</c><c>   1</c></rc>
    <rc><c>Ni</c><c>   1</c></rc>
    <rc><c>Ni</c><c>   1</c></rc>
    <rc><c>Ni</c><c>   1</c></rc>
    <rc><c>Ni</c><c>   1</c></rc>
    <rc><c>Ni</c><c>   1</c></rc>
    <rc><c>Ni</c><c>   1</c></rc>
    <rc><c>Ni</c><c>   1</c></rc>
    <rc><c>Ni</c><c>   1</c></rc>
    <rc><c>Ni</c><c>   1</c></rc>
    <rc><c>Ni</c><c>   1</c></rc>
    <rc><c>Ni</c><c>   1</c></rc>
    <rc><c>Ni</c><c>   1</c></rc>
    <rc><c>Ni</c><c>   1</c></rc>
    <rc><c>Ni</c><c>   1</c></rc>
    <rc><c>Ni</c><c>   1</c></rc>
    <rc><c>Ni</c><c>   1</c></rc>
    <rc><c>Ni</c><c>   1</c></rc>
    <rc><c>Ni</c><c>   1</c></rc>
    <rc><c>Ni</c><c>   1</c></rc>
    <rc><c>Ni</c><c>   1</c></rc>
    <rc><c>Ni</c><c>   1</c></rc>
    <rc><c>Ni</c><c>   1</c></rc>
    <rc><c>Ni</c><c>   1</c></rc>
    <rc><c>Ni</c><c>   1</c></rc>
    <rc><c>S </c><c>   2</c></rc>
    <rc><c>S </c><c>   2</c></rc>
    <rc><c>S </c><c>   2</c></rc>
    <rc><c>S </c><c>   2</c></rc>
    <rc><c>S </c><c>   2</c></rc>
    <rc><c>S </c><c>   2</c></rc>
    <rc><c>S </c><c>   2</c></rc>
    <rc><c>S </c><c>   2</c></rc>
    <rc><c>S </c><c>   2</c></rc>
    <rc><c>S </c><c>   2</c></rc>
    <rc><c>S </c><c>   2</c></rc>
    <rc><c>S </c><c>   2</c></rc>
    <rc><c>S </c><c>   2</c></rc>
    <rc><c>S </c><c>   2</c></rc>
    <rc><c>S </c><c>   2</c></rc>
    <rc><c>S </c><c>   2</c></rc>
    <rc><c>S </c><c>   2</c></rc>
    <rc><c>S </c><c>   2</c></rc>
    <rc><c>S </c><c>   2</c></rc>
    <rc><c>S </c><c>   2</c></rc>
    <rc><c>S </c><c>   2</c></rc>
    <rc><c>S </c><c>   2</c></rc>
    <rc><c>S </c><c>   2</c></rc>
    <rc><c>S </c><c>   2</c></rc>
    <rc><c>S </c><c>   2</c></rc>
    <rc><c>S </c><c>   2</c></rc>
    <rc><c>S </c><c>   2</c></rc>
    <rc><c>S </c><c>   2</c></rc>
    <rc><c>S </c><c>   2</c></rc>
    <rc><c>S </c><c>   2</c></rc>
    <rc><c>S </c><c>   2</c></rc>
    <rc><c>S </c><c>   2</c></rc>
    <rc><c>S </c><c>   2</c></rc>
    <rc><c>S </c><c>   2</c></rc>
    <rc><c>S </c><c>   2</c></rc>
    <rc><c>S </c><c>   2</c></rc>
    <rc><c>S </c><c>   2</c></rc>
    <rc><c>S </c><c>   2</c></rc>
    <rc><c>S </c><c>   2</c></rc>
   </set>
  </array>
  <array name="atomtypes" >
   <dimension dim="1">type</dimension>
   <field type="int">atomspertype</field>
   <field type="string">element</field>
   <field>mass</field>
   <field>valence</field>
   <field type="string">pseudopotential</field>
   <set>
    <rc><c>  39</c><c>Ni</c><c>     58.69000000</c><c>     16.00000000</c><c>  PAW_PBE Ni_pv 06Sep2000               </c></rc>
    <rc><c>  39</c><c>S </c><c>     32.06600000</c><c>      6.00000000</c><c>  PAW_PBE S 06Sep2000                   </c></rc>
   </set>
  </array>
 </atominfo>
 <structure name="initialpos" >
  <crystal>
   <varray name="basis" >
    <v>       8.70073080      -4.00539907       0.00000000 </v>
    <v>       0.00000000      11.45278367       0.00000000 </v>
    <v>       0.00000000       0.00000000      20.84683014 </v>
   </varray>
   <i name="volume">   2077.33633233 </i>
   <varray name="rec_basis" >
    <v>       0.11493287       0.00000000       0.00000000 </v>
    <v>       0.04019565       0.08731502       0.00000000 </v>
    <v>       0.00000000       0.00000000       0.04796892 </v>
   </varray>
  </crystal>
  <varray name="positions" >
   <v>       0.63793591       0.42904558       0.08004781 </v>
   <v>       0.72899292       0.61115959       0.20011952 </v>
   <v>       0.82004993       0.79327361       0.32019124 </v>
   <v>       0.91110694       0.97538762       0.44026296 </v>
   <v>       0.45636426       0.06590227       0.28016734 </v>
   <v>       0.54742127       0.24801628       0.40023905 </v>
   <v>       0.63847827       0.43013030       0.52031076 </v>
   <v>       0.27425024       0.70167424       0.04002390 </v>
   <v>       0.36530725       0.88378825       0.16009562 </v>
   <v>       0.00162158       0.15641692       0.12007172 </v>
   <v>       0.09267859       0.33853093       0.24014343 </v>
   <v>       0.18373560       0.52064495       0.36021514 </v>
   <v>       0.27479261       0.70275896       0.48028686 </v>
   <v>       0.91056458       0.97430290       0.00000000 </v>
   <v>       0.59499452       0.07895679       0.02342343 </v>
   <v>       0.68605153       0.26107081       0.14349515 </v>
   <v>       0.77710854       0.44318482       0.26356686 </v>
   <v>       0.86816554       0.62529884       0.38363857 </v>
   <v>       0.95922255       0.80741285       0.50371029 </v>
   <v>       0.59553688       0.08004151       0.46368639 </v>
   <v>       0.32236586       0.53369947       0.10347124 </v>
   <v>       0.41342287       0.71581348       0.22354295 </v>
   <v>       0.50447988       0.89792750       0.34361467 </v>
   <v>       0.14079421       0.17055616       0.30359077 </v>
   <v>       0.23185121       0.35267018       0.42366248 </v>
   <v>       0.04973720       0.98844215       0.18351905 </v>
   <v>       0.95868019       0.80632813       0.06344733 </v>
   <v>       0.08425593       0.79327361       0.32019124 </v>
   <v>       0.90214191       0.42904558       0.08004781 </v>
   <v>       0.99319892       0.61115959       0.20011952 </v>
   <v>       0.72057026       0.06590227       0.28016734 </v>
   <v>       0.81162727       0.24801628       0.40023905 </v>
   <v>       0.53845624       0.70167424       0.04002390 </v>
   <v>       0.62951325       0.88378825       0.16009562 </v>
   <v>       0.26582758       0.15641692       0.12007172 </v>
   <v>       0.35688459       0.33853093       0.24014343 </v>
   <v>       0.44794160       0.52064495       0.36021514 </v>
   <v>       0.53899861       0.70275896       0.48028686 </v>
   <v>       0.17477058       0.97430290       0.00000000 </v>
   <v>       0.01340710       0.57935194       0.31115216 </v>
   <v>       0.10446410       0.76146596       0.43122388 </v>
   <v>       0.83129308       0.21512391       0.07100873 </v>
   <v>       0.92235009       0.39723793       0.19108045 </v>
   <v>       0.74077844       0.03409462       0.39119997 </v>
   <v>       0.83183544       0.21620863       0.51127169 </v>
   <v>       0.46760741       0.48775257       0.03098483 </v>
   <v>       0.55866442       0.66986659       0.15105654 </v>
   <v>       0.64972143       0.85198060       0.27112826 </v>
   <v>       0.28603576       0.12460926       0.23110435 </v>
   <v>       0.37709277       0.30672328       0.35117607 </v>
   <v>       0.46814977       0.48883730       0.47124778 </v>
   <v>       0.19497875       0.94249525       0.11103264 </v>
   <v>       0.13425249       0.15747274       0.47050414 </v>
   <v>       0.04319549       0.97535872       0.35043242 </v>
   <v>       0.86108147       0.61113069       0.11028899 </v>
   <v>       0.95213848       0.79324471       0.23036071 </v>
   <v>       0.58845281       0.06587337       0.19033680 </v>
   <v>       0.67950982       0.24798738       0.31040852 </v>
   <v>       0.77056683       0.43010140       0.43048023 </v>
   <v>       0.49739580       0.88375935       0.07026509 </v>
   <v>       0.13371013       0.15638801       0.03024118 </v>
   <v>       0.22476714       0.33850203       0.15031290 </v>
   <v>       0.31582415       0.52061604       0.27038461 </v>
   <v>       0.40688116       0.70273006       0.39045633 </v>
   <v>       0.49793816       0.88484407       0.51052804 </v>
   <v>       0.49486308       0.21512391       0.07100873 </v>
   <v>       0.58592009       0.39723793       0.19108045 </v>
   <v>       0.67697710       0.57935194       0.31115216 </v>
   <v>       0.76803410       0.76146596       0.43122388 </v>
   <v>       0.40434844       0.03409462       0.39119997 </v>
   <v>       0.49540544       0.21620863       0.51127169 </v>
   <v>       0.13117741       0.48775257       0.03098483 </v>
   <v>       0.22223442       0.66986659       0.15105654 </v>
   <v>       0.31329143       0.85198060       0.27112826 </v>
   <v>       0.04066277       0.30672328       0.35117607 </v>
   <v>       0.13171977       0.48883730       0.47124778 </v>
   <v>       0.94960576       0.12460926       0.23110435 </v>
   <v>       0.85854875       0.94249525       0.11103264 </v>
  </varray>
 </structure>
 <calculation>
  <scstep>
   <time name="dav">    2.40    2.41</time>
   <time name="total">    2.46    2.47</time>
   <energy>
    <i name="alphaZ">   2101.59301765 </i>
    <i name="ewald"> 176218.44262312 </i>
    <i name="hartreedc">-309207.06075142 </i>
    <i name="XCdc">   3956.10038011 </i>
    <i name="pawpsdc"> 122123.66111200 </i>
    <i name="pawaedc">-127444.97121129 </i>
    <i name="eentropy">     -0.31802255 </i>
    <i name="bandstr">  -4412.72223617 </i>
    <i name="atom"> 147336.15547490 </i>
    <i name="e_fr_energy">  10670.88038635 </i>
    <i name="e_wo_entrp">  10671.19840890 </i>
    <i name="e_0_energy">  10671.03939763 </i>
   </energy>
  </scstep>
  <scstep>
   <time name="dav">    2.12    2.12</time>
   <time name="total">    2.12    2.12</time>
   <energy>
    <i name="e_fr_energy">    690.60890882 </i>
    <i name="e_wo_entrp">    691.53234823 </i>
    <i name="e_0_energy">    691.07062853 </i>
   </energy>
  </scstep>
  <scstep>
   <time name="dav">    2.28    2.29</time>
   <time name="total">    2.28    2.29</time>
   <energy>
    <i name="e_fr_energy">   -365.71461908 </i>
    <i name="e_wo_entrp">   -364.38055288 </i>
    <i name="e_0_energy">   -365.04758598 </i>
   </energy>
  </scstep>
  <scstep>
   <time name="dav">    2.35    2.36</time>
   <time name="total">    2.35    2.36</time>
   <energy>
    <i name="e_fr_energy">   -436.36853944 </i>
    <i name="e_wo_entrp">   -434.91835744 </i>
    <i name="e_0_energy">   -435.64344844 </i>
   </energy>
  </scstep>
  <scstep>
   <time name="dav">    2.49    2.50</time>
   <time name="total">    2.54    2.55</time>
   <energy>
    <i name="e_fr_energy">   -439.10505755 </i>
    <i name="e_wo_entrp">   -437.66817242 </i>
    <i name="e_0_energy">   -438.38661498 </i>
   </energy>
  </scstep>
  <scstep>
   <time name="dav">    2.40    2.40</time>
   <time name="total">    2.50    2.51</time>
   <energy>
    <i name="e_fr_energy">   -534.76358172 </i>
    <i name="e_wo_entrp">   -533.85922951 </i>
    <i name="e_0_energy">   -534.31140562 </i>
   </energy>
  </scstep>
  <scstep>
   <time name="dav">    2.35    2.36</time>
   <time name="total">    2.45    2.46</time>
   <energy>
    <i name="e_fr_energy">   -407.04408337 </i>
    <i name="e_wo_entrp">   -405.97793743 </i>
    <i name="e_0_energy">   -406.51101040 </i>
   </energy>
  </scstep>
  <scstep>
   <time name="dav">    2.65    2.66</time>
   <time name="total">    2.75    2.76</time>
   <energy>
    <i name="e_fr_energy">   -510.65923695 </i>
    <i name="e_wo_entrp">   -510.01790569 </i>
    <i name="e_0_energy">   -510.33857132 </i>
   </energy>
  </scstep>
  <scstep>
   <time name="dav">    2.49    2.50</time>
   <time name="total">    2.59    2.60</time>
   <energy>
    <i name="e_fr_energy">   -411.97122218 </i>
    <i name="e_wo_entrp">   -410.77411143 </i>
    <i name="e_0_energy">   -411.37266680 </i>
   </energy>
  </scstep>
  <scstep>
   <time name="dav">    2.69    2.70</time>
   <time name="total">    2.79    2.80</time>
   <energy>
    <i name="e_fr_energy">   -405.28842851 </i>
    <i name="e_wo_entrp">   -404.07787003 </i>
    <i name="e_0_energy">   -404.68314927 </i>
   </energy>
  </scstep>
  <scstep>
   <time name="dav">    2.74    2.74</time>
   <time name="total">    2.84    2.84</time>
   <energy>
    <i name="e_fr_energy">   -413.90709479 </i>
    <i name="e_wo_entrp">   -412.65969878 </i>
    <i name="e_0_energy">   -413.28339678 </i>
   </energy>
  </scstep>
  <scstep>
   <time name="dav">    2.68    2.69</time>
   <time name="total">    2.78    2.79</time>
   <energy>
    <i name="e_fr_energy">   -397.10020951 </i>
    <i name="e_wo_entrp">   -395.85430147 </i>
    <i name="e_0_energy">   -396.47725549 </i>
   </energy>
  </scstep>
  <scstep>
   <time name="dav">    2.64    2.64</time>
   <time name="total">    2.74    2.75</time>
   <energy>
    <i name="e_fr_energy">   -401.75700495 </i>
    <i name="e_wo_entrp">   -400.60241004 </i>
    <i name="e_0_energy">   -401.17970749 </i>
   </energy>
  </scstep>
  <scstep>
   <time name="dav">    2.62    2.63</time>
   <time name="total">    2.72    2.73</time>
   <energy>
    <i name="e_fr_energy">   -395.82936402 </i>
    <i name="e_wo_entrp">   -394.87157349 </i>
    <i name="e_0_energy">   -395.35046876 </i>
   </energy>
  </scstep>
  <scstep>
   <time name="dav">    2.61    2.62</time>
   <time name="total">    2.71    2.72</time>
   <energy>
    <i name="e_fr_energy">   -389.57288838 </i>
    <i name="e_wo_entrp">   -388.59837580 </i>
    <i name="e_0_energy">   -389.08563209 </i>
   </energy>
  </scstep>
  <scstep>
   <time name="dav">    2.62    2.63</time>
   <time name="total">    2.73    2.74</time>
   <energy>
    <i name="e_fr_energy">   -388.14972123 </i>
    <i name="e_wo_entrp">   -387.15297213 </i>
    <i name="e_0_energy">   -387.65134668 </i>
   </energy>
  </scstep>
  <scstep>
   <time name="dav">    2.55    2.55</time>
   <time name="total">    2.65    2.66</time>
   <energy>
    <i name="e_fr_energy">   -387.35905270 </i>
    <i name="e_wo_entrp">   -386.35285428 </i>
    <i name="e_0_energy">   -386.85595349 </i>
   </energy>
  </scstep>
  <scstep>
   <time name="dav">    2.67    2.68</time>
   <time name="total">    2.78    2.78</time>
   <energy>
    <i name="e_fr_energy">   -386.23514104 </i>
    <i name="e_wo_entrp">   -385.18767392 </i>
    <i name="e_0_energy">   -385.71140748 </i>
   </energy>
  </scstep>
  <scstep>
   <time name="dav">    2.63    2.64</time>
   <time name="total">    2.73    2.74</time>
   <energy>
    <i name="e_fr_energy">   -385.58030229 </i>
    <i name="e_wo_entrp">   -384.50619076 </i>
    <i name="e_0_energy">   -385.04324653 </i>
   </energy>
  </scstep>
  <scstep>
   <time name="dav">    2.64    2.65</time>
   <time name="total">    2.75    2.76</time>
   <energy>
    <i name="e_fr_energy">   -385.12969370 </i>
    <i name="e_wo_entrp">   -384.06704155 </i>
    <i name="e_0_energy">   -384.59836763 </i>
   </energy>
  </scstep>
  <scstep>
   <time name="dav">    2.61    2.62</time>
   <time name="total">    2.71    2.72</time>
   <energy>
    <i name="e_fr_energy">   -384.86808205 </i>
    <i name="e_wo_entrp">   -383.76722850 </i>
    <i name="e_0_energy">   -384.31765528 </i>
   </energy>
  </scstep>
  <scstep>
   <time name="dav">    2.64    2.65</time>
   <time name="total">    2.74    2.75</time>
   <energy>
    <i name="e_fr_energy">   -384.75729755 </i>
    <i name="e_wo_entrp">   -383.65381556 </i>
    <i name="e_0_energy">   -384.20555655 </i>
   </energy>
  </scstep>
  <scstep>
   <time name="dav">    2.69    2.70</time>
   <time name="total">    2.79    2.80</time>
   <energy>
    <i name="e_fr_energy">   -384.51381753 </i>
    <i name="e_wo_entrp">   -383.37329115 </i>
    <i name="e_0_energy">   -383.94355434 </i>
   </energy>
  </scstep>
  <scstep>
   <time name="dav">    2.64    2.64</time>
   <time name="total">    2.74    2.74</time>
   <energy>
    <i name="e_fr_energy">   -384.53775717 </i>
    <i name="e_wo_entrp">   -383.37455411 </i>
    <i name="e_0_energy">   -383.95615564 </i>
   </energy>
  </scstep>
  <scstep>
   <time name="dav">    2.73    2.74</time>
   <time name="total">    2.83    2.84</time>
   <energy>
    <i name="e_fr_energy">   -384.43671830 </i>
    <i name="e_wo_entrp">   -383.25764939 </i>
    <i name="e_0_energy">   -383.84718385 </i>
   </energy>
  </scstep>
  <scstep>
   <time name="dav">    2.56    2.57</time>
   <time name="total">    2.66    2.67</time>
   <energy>
    <i name="e_fr_energy">   -384.40591177 </i>
    <i name="e_wo_entrp">   -383.21589151 </i>
    <i name="e_0_energy">   -383.81090164 </i>
   </energy>
  </scstep>
  <scstep>
   <time name="dav">    2.32    2.33</time>
   <time name="total">    2.42    2.43</time>
   <energy>
    <i name="e_fr_energy">   -384.41209402 </i>
    <i name="e_wo_entrp">   -383.21535251 </i>
    <i name="e_0_energy">   -383.81372326 </i>
   </energy>
  </scstep>
  <scstep>
   <time name="dav">    2.31    2.32</time>
   <time name="total">    2.41    2.42</time>
   <energy>
    <i name="e_fr_energy">   -384.39910988 </i>
    <i name="e_wo_entrp">   -383.21139467 </i>
    <i name="e_0_energy">   -383.80525228 </i>
   </energy>
  </scstep>
  <scstep>
   <time name="dav">    2.60    2.61</time>
   <time name="total">    2.70    2.71</time>
   <energy>
    <i name="e_fr_energy">   -384.40583296 </i>
    <i name="e_wo_entrp">   -383.21798440 </i>
    <i name="e_0_energy">   -383.81190868 </i>
   </energy>
  </scstep>
  <scstep>
   <time name="dav">    2.56    2.56</time>
   <time name="total">    2.66    2.66</time>
   <energy>
    <i name="e_fr_energy">   -384.37494999 </i>
    <i name="e_wo_entrp">   -383.19330802 </i>
    <i name="e_0_energy">   -383.78412900 </i>
   </energy>
  </scstep>
  <scstep>
   <time name="dav">    2.66    2.67</time>
   <time name="total">    2.76    2.77</time>
   <energy>
    <i name="e_fr_energy">   -384.37315652 </i>
    <i name="e_wo_entrp">   -383.19832083 </i>
    <i name="e_0_energy">   -383.78573867 </i>
   </energy>
  </scstep>
  <scstep>
   <time name="dav">    2.69    2.70</time>
   <time name="total">    2.80    2.80</time>
   <energy>
    <i name="e_fr_energy">   -384.36049553 </i>
    <i name="e_wo_entrp">   -383.19462082 </i>
    <i name="e_0_energy">   -383.77755817 </i>
   </energy>
  </scstep>
  <scstep>
   <time name="dav">    2.57    2.58</time>
   <time name="total">    2.68    2.69</time>
   <energy>
    <i name="e_fr_energy">   -384.36124115 </i>
    <i name="e_wo_entrp">   -383.19697367 </i>
    <i name="e_0_energy">   -383.77910741 </i>
   </energy>
  </scstep>
  <scstep>
   <time name="dav">    2.31    2.31</time>
   <time name="total">    2.41    2.42</time>
   <energy>
    <i name="e_fr_energy">   -384.36037909 </i>
    <i name="e_wo_entrp">   -383.19735727 </i>
    <i name="e_0_energy">   -383.77886818 </i>
   </energy>
  </scstep>
  <scstep>
   <time name="dav">    2.34    2.34</time>
   <time name="total">    2.44    2.45</time>
   <energy>
    <i name="e_fr_energy">   -384.36017955 </i>
    <i name="e_wo_entrp">   -383.19753699 </i>
    <i name="e_0_energy">   -383.77885827 </i>
   </energy>
  </scstep>
  <scstep>
   <time name="dav">    2.42    2.43</time>
   <time name="total">    2.52    2.53</time>
   <energy>
    <i name="e_fr_energy">   -384.35994137 </i>
    <i name="e_wo_entrp">   -383.19690662 </i>
    <i name="e_0_energy">   -383.77842399 </i>
   </energy>
  </scstep>
  <scstep>
   <time name="dav">    2.24    2.25</time>
   <time name="total">    2.34    2.35</time>
   <energy>
    <i name="e_fr_energy">   -384.36006802 </i>
    <i name="e_wo_entrp">   -383.19682013 </i>
    <i name="e_0_energy">   -383.77844407 </i>
   </energy>
  </scstep>
  <scstep>
   <time name="dav">    1.93    1.93</time>
   <time name="total">    2.03    2.03</time>
   <energy>
    <i name="e_fr_energy">   -384.36020882 </i>
    <i name="e_wo_entrp">   -383.19630531 </i>
    <i name="e_0_energy">   -383.77825706 </i>
   </energy>
  </scstep>
  <scstep>
   <time name="dav">    1.66    1.67</time>
   <time name="total">    1.71    1.72</time>
   <energy>
    <i name="alphaZ">   2101.59301765 </i>
    <i name="ewald"> 176218.44262312 </i>
    <i name="hartreedc">-308413.88318082 </i>
    <i name="XCdc">   3924.10679367 </i>
    <i name="pawpsdc"> 141361.51761638 </i>
    <i name="pawaedc">-146745.70265242 </i>
    <i name="eentropy">     -1.16359456 </i>
    <i name="bandstr"> -16165.42633879 </i>
    <i name="atom"> 147336.15547490 </i>
    <i name="e_fr_energy">   -384.36024087 </i>
    <i name="e_wo_entrp">   -383.19664630 </i>
    <i name="e_0_energy">   -383.77844358 </i>
   </energy>
  </scstep>
  <structure>
   <crystal>
    <varray name="basis" >
     <v>       8.70073080      -4.00539907       0.00000000 </v>
     <v>       0.00000000      11.45278367       0.00000000 </v>
     <v>       0.00000000       0.00000000      20.84683014 </v>
    </varray>
    <i name="volume">   2077.33633233 </i>
    <varray name="rec_basis" >
     <v>       0.11493287       0.00000000       0.00000000 </v>
     <v>       0.04019565       0.08731502       0.00000000 </v>
     <v>       0.00000000       0.00000000       0.04796892 </v>
    </varray>
   </crystal>
   <varray name="positions" >
    <v>       0.63793591       0.42904558       0.08004781 </v>
    <v>       0.72899292       0.61115959       0.20011952 </v>
    <v>       0.82004993       0.79327361       0.32019124 </v>
    <v>       0.91110694       0.97538762       0.44026296 </v>
    <v>       0.45636426       0.06590227       0.28016734 </v>
    <v>       0.54742127       0.24801628       0.40023905 </v>
    <v>       0.63847827       0.43013030       0.52031076 </v>
    <v>       0.27425024       0.70167424       0.04002390 </v>
    <v>       0.36530725       0.88378825       0.16009562 </v>
    <v>       0.00162158       0.15641692       0.12007172 </v>
    <v>       0.09267859       0.33853093       0.24014343 </v>
    <v>       0.18373560       0.52064495       0.36021514 </v>
    <v>       0.27479261       0.70275896       0.48028686 </v>
    <v>       0.91056458       0.97430290       0.00000000 </v>
    <v>       0.59499452       0.07895679       0.02342343 </v>
    <v>       0.68605153       0.26107081       0.14349515 </v>
    <v>       0.77710854       0.44318482       0.26356686 </v>
    <v>       0.86816554       0.62529884       0.38363857 </v>
    <v>       0.95922255       0.80741285       0.50371029 </v>
    <v>       0.59553688       0.08004151       0.46368639 </v>
    <v>       0.32236586       0.53369947       0.10347124 </v>
    <v>       0.41342287       0.71581348       0.22354295 </v>
    <v>       0.50447988       0.89792750       0.34361467 </v>
    <v>       0.14079421       0.17055616       0.30359077 </v>
    <v>       0.23185121       0.35267018       0.42366248 </v>
    <v>       0.04973720       0.98844215       0.18351905 </v>
    <v>       0.95868019       0.80632813       0.06344733 </v>
    <v>       0.08425593       0.79327361       0.32019124 </v>
    <v>       0.90214191       0.42904558       0.08004781 </v>
    <v>       0.99319892       0.61115959       0.20011952 </v>
    <v>       0.72057026       0.06590227       0.28016734 </v>
    <v>       0.81162727       0.24801628       0.40023905 </v>
    <v>       0.53845624       0.70167424       0.04002390 </v>
    <v>       0.62951325       0.88378825       0.16009562 </v>
    <v>       0.26582758       0.15641692       0.12007172 </v>
    <v>       0.35688459       0.33853093       0.24014343 </v>
    <v>       0.44794160       0.52064495       0.36021514 </v>
    <v>       0.53899861       0.70275896       0.48028686 </v>
    <v>       0.17477058       0.97430290       0.00000000 </v>
    <v>       0.01340710       0.57935194       0.31115216 </v>
    <v>       0.10446410       0.76146596       0.43122388 </v>
    <v>       0.83129308       0.21512391       0.07100873 </v>
    <v>       0.92235009       0.39723793       0.19108045 </v>
    <v>       0.74077844       0.03409462       0.39119997 </v>
    <v>       0.83183544       0.21620863       0.51127169 </v>
    <v>       0.46760741       0.48775257       0.03098483 </v>
    <v>       0.55866442       0.66986659       0.15105654 </v>
    <v>       0.64972143       0.85198060       0.27112826 </v>
    <v>       0.28603576       0.12460926       0.23110435 </v>
    <v>       0.37709277       0.30672328       0.35117607 </v>
    <v>       0.46814977       0.48883730       0.47124778 </v>
    <v>       0.19497875       0.94249525       0.11103264 </v>
    <v>       0.13425249       0.15747274       0.47050414 </v>
    <v>       0.04319549       0.97535872       0.35043242 </v>
    <v>       0.86108147       0.61113069       0.11028899 </v>
    <v>       0.95213848       0.79324471       0.23036071 </v>
    <v>       0.58845281       0.06587337       0.19033680 </v>
    <v>       0.67950982       0.24798738       0.31040852 </v>
    <v>       0.77056683       0.43010140       0.43048023 </v>
    <v>       0.49739580       0.88375935       0.07026509 </v>
    <v>       0.13371013       0.15638801       0.03024118 </v>
    <v>       0.22476714       0.33850203       0.15031290 </v>
    <v>       0.31582415       0.52061604       0.27038461 </v>
    <v>       0.40688116       0.70273006       0.39045633 </v>
    <v>       0.49793816       0.88484407       0.51052804 </v>
    <v>       0.49486308       0.21512391       0.07100873 </v>
    <v>       0.58592009       0.39723793       0.19108045 </v>
    <v>       0.67697710       0.57935194       0.31115216 </v>
    <v>       0.76803410       0.76146596       0.43122388 </v>
    <v>       0.40434844       0.03409462       0.39119997 </v>
    <v>       0.49540544       0.21620863       0.51127169 </v>
    <v>       0.13117741       0.48775257       0.03098483 </v>
    <v>       0.22223442       0.66986659       0.15105654 </v>
    <v>       0.31329143       0.85198060       0.27112826 </v>
    <v>       0.04066277       0.30672328       0.35117607 </v>
    <v>       0.13171977       0.48883730       0.47124778 </v>
    <v>       0.94960576       0.12460926       0.23110435 </v>
    <v>       0.85854875       0.94249525       0.11103264 </v>
   </varray>
  </structure>
  <varray name="forces" >
   <v>      -0.60821182       0.15722008       0.37070156 </v>
   <v>      -0.11491638      -0.05828033      -0.06320936 </v>
   <v>       0.30165891       0.19481858      -0.10842484 </v>
   <v>       1.09336423       0.23178728      -0.75762623 </v>
   <v>       0.22036299      -0.11223983       0.10354747 </v>
   <v>       0.12578574       0.04508038       0.21099968 </v>
   <v>      -0.97325958      -0.85398372      -2.08017759 </v>
   <v>      -0.11985619      -0.31425522       0.96784222 </v>
   <v>      -0.08613153      -0.15292741      -0.01947593 </v>
   <v>      -0.08729928      -0.13284624      -0.24916981 </v>
   <v>      -0.07532470      -0.02294441      -0.07565548 </v>
   <v>      -0.00828497      -0.09754265       0.34148864 </v>
   <v>       0.47012925       0.01127304      -0.92734170 </v>
   <v>       0.95668639       0.29628886       1.77409181 </v>
   <v>       0.11754777       0.26954312       1.65318604 </v>
   <v>       0.01718863       0.08171726      -0.31902687 </v>
   <v>       0.10131082       0.08153957      -0.05708606 </v>
   <v>       0.24285312      -0.13266318       0.20912107 </v>
   <v>       0.00657248      -0.31312825      -1.98648325 </v>
   <v>       0.19647252       0.15547259       0.59721967 </v>
   <v>      -0.07880818      -0.22759415      -0.19535473 </v>
   <v>       0.04898652       0.13288086       0.04552011 </v>
   <v>       0.10759128       0.27993694      -0.04681941 </v>
   <v>       0.07450903       0.15750640      -0.22548708 </v>
   <v>      -0.08507555       0.22814177       0.74249089 </v>
   <v>      -0.04893415      -0.11736376      -0.22171636 </v>
   <v>       0.18925013       0.41160177       0.74993054 </v>
   <v>      -0.08992991       0.33857223       0.14706268 </v>
   <v>       0.53831054      -0.33029031       0.36118860 </v>
   <v>      -0.02470441      -0.09142900      -0.04062332 </v>
   <v>      -0.17598536       0.02395572      -0.02410307 </v>
   <v>       0.02062214       0.13878887       0.59171087 </v>
   <v>      -0.16701947      -0.30083219       0.99948381 </v>
   <v>      -0.06631265      -0.16740460      -0.07109167 </v>
   <v>      -0.04324703      -0.13543130      -0.27195606 </v>
   <v>       0.00487808      -0.05597108      -0.12458348 </v>
   <v>       0.06165633      -0.09894071       0.08047572 </v>
   <v>      -0.29411072       0.52971783      -0.79509812 </v>
   <v>      -0.39077511       0.92031791       1.77500921 </v>
   <v>      -0.09975910       0.06667938       0.05553729 </v>
   <v>      -0.69848776       0.22108452       1.26035109 </v>
   <v>      -0.74652204       0.37300901      -0.59456147 </v>
   <v>      -0.14506616       0.15374006       0.12766750 </v>
   <v>       0.06049374       0.12936065       0.20740837 </v>
   <v>      -0.84373999      -0.42719609      -1.28351826 </v>
   <v>       0.81278288       0.75365812      -0.00158727 </v>
   <v>      -0.21311383       0.17358822      -0.03332270 </v>
   <v>      -0.07687839      -0.03266503       0.07420392 </v>
   <v>      -0.05917909      -0.02000982       0.18950981 </v>
   <v>      -0.26413070      -0.04476578       0.09131213 </v>
   <v>       0.48052208       0.47621203       0.58304225 </v>
   <v>      -0.28117083      -0.33454814      -0.92756091 </v>
   <v>      -0.96272508      -0.00650170       0.55796018 </v>
   <v>      -0.33015622      -0.25421076       0.28672111 </v>
   <v>       0.00147165      -0.06196424      -1.55088055 </v>
   <v>       0.04631405      -0.13516769       0.07012773 </v>
   <v>      -0.08061976      -0.11528868      -0.02307942 </v>
   <v>       0.02821532      -0.04956394       0.21745068 </v>
   <v>      -0.30981882       0.11123721       1.03977517 </v>
   <v>       0.03522597       0.09068548      -1.91994561 </v>
   <v>      -0.49963731      -1.10853843      -1.24913708 </v>
   <v>       0.03386888       0.05414887      -0.14547696 </v>
   <v>       0.06318421       0.12143501       0.19091637 </v>
   <v>      -0.07027279      -0.07732379       0.43970176 </v>
   <v>      -0.78358989      -1.55228243       0.25310748 </v>
   <v>       0.77892771      -0.32540098      -0.60057380 </v>
   <v>       0.26311765      -0.04701000       0.11793803 </v>
   <v>       0.12041454       0.09089526       0.20878660 </v>
   <v>       0.62974283       0.26532523       1.42682249 </v>
   <v>       0.14954210      -0.07866686      -0.17590554 </v>
   <v>       0.61127289      -0.00981702      -0.65743925 </v>
   <v>       0.03277738       1.09273924      -0.00826354 </v>
   <v>       0.25552044      -0.05947655      -0.02038278 </v>
   <v>       0.01743009      -0.06482384       0.09333914 </v>
   <v>       0.22655170      -0.08517480       0.14752565 </v>
   <v>       0.48658787       0.23990205      -0.75113169 </v>
   <v>       0.03669991      -0.04336945       0.15362911 </v>
   <v>      -0.06334601      -0.45002703      -0.91062721 </v>
  </varray>
  <varray name="stress" >
   <v>     -23.41326937      -4.57455155      -5.94728384 </v>
   <v>      -4.57455151     -28.15060857      -9.14506916 </v>
   <v>      -5.94728451      -9.14506887     -20.58100382 </v>
  </varray>
  <energy>
   <i name="e_fr_energy">   -384.36024087 </i>
   <i name="e_wo_entrp">   -383.19664630 </i>
   <i name="e_0_energy">   -383.77844358 </i>
  </energy>
  <time name="totalsc">  102.60  102.93</time>
  <eigenvalues>
   <array>
    <dimension dim="1">band</dimension>
    <dimension dim="2">kpoint</dimension>
    <dimension dim="3">spin</dimension>
    <field>eigene</field>
    <field>occ</field>
    <set>
     <set comment="spin 1">
      <set comment="kpoint 1">
       <r>  -62.6275    1.0000 </r>
       <r>  -62.6233    1.0000 </r>
       <r>  -62.5735    1.0000 </r>
       <r>  -62.5712    1.0000 </r>
       <r>  -62.5692    1.0000 </r>
       <r>  -62.5638    1.0000 </r>
       <r>  -62.5581    1.0000 </r>
       <r>  -62.5549    1.0000 </r>
       <r>  -62.5538    1.0000 </r>
       <r>  -62.5524    1.0000 </r>
       <r>  -62.5502    1.0000 </r>
       <r>  -62.5482    1.0000 </r>
       <r>  -62.5451    1.0000 </r>
       <r>  -62.5445    1.0000 </r>
       <r>  -62.5435    1.0000 </r>
       <r>  -62.5397    1.0000 </r>
       <r>  -62.5279    1.0000 </r>
       <r>  -62.5237    1.0000 </r>
       <r>  -62.5237    1.0000 </r>
       <r>  -62.5234    1.0000 </r>
       <r>  -62.5224    1.0000 </r>
       <r>  -62.5218    1.0000 </r>
       <r>  -62.5161    1.0000 </r>
       <r>  -62.5131    1.0000 </r>
       <r>  -62.5069    1.0000 </r>
       <r>  -62.5069    1.0000 </r>
       <r>  -62.5052    1.0000 </r>
       <r>  -62.5033    1.0000 </r>
       <r>  -62.5026    1.0000 </r>
       <r>  -62.4978    1.0000 </r>
       <r>  -62.4947    1.0000 </r>
       <r>  -62.4903    1.0000 </r>
       <r>  -62.4884    1.0000 </r>
       <r>  -62.4861    1.0000 </r>
       <r>  -62.4852    1.0000 </r>
       <r>  -62.4844    1.0000 </r>
       <r>  -62.4828    1.0000 </r>
       <r>  -62.4759    1.0000 </r>
       <r>  -62.4718    1.0000 </r>
       <r>  -62.4717    1.0000 </r>
       <r>  -62.4716    1.0000 </r>
       <r>  -62.4676    1.0000 </r>
       <r>  -62.4658    1.0000 </r>
       <r>  -62.4630    1.0000 </r>
       <r>  -62.4597    1.0000 </r>
       <r>  -62.4562    1.0000 </r>
       <r>  -62.4550    1.0000 </r>
       <r>  -62.4498    1.0000 </r>
       <r>  -62.4426    1.0000 </r>
       <r>  -62.4309    1.0000 </r>
       <r>  -62.4298    1.0000 </r>
       <r>  -62.4189    1.0000 </r>
       <r>  -62.4110    1.0000 </r>
       <r>  -62.4086    1.0000 </r>
       <r>  -62.3824    1.0000 </r>
       <r>  -62.3790    1.0000 </r>
       <r>  -62.3612    1.0000 </r>
       <r>  -62.3592    1.0000 </r>
       <r>  -62.3456    1.0000 </r>
       <r>  -62.3431    1.0000 </r>
       <r>  -62.3393    1.0000 </r>
       <r>  -62.3253    1.0000 </r>
       <r>  -62.3248    1.0000 </r>
       <r>  -62.3160    1.0000 </r>
       <r>  -62.3150    1.0000 </r>
       <r>  -62.3103    1.0000 </r>
       <r>  -62.3060    1.0000 </r>
       <r>  -62.3059    1.0000 </r>
       <r>  -62.3052    1.0000 </r>
       <r>  -62.2983    1.0000 </r>
       <r>  -62.2975    1.0000 </r>
       <r>  -62.2908    1.0000 </r>
       <r>  -62.2859    1.0000 </r>
       <r>  -62.2846    1.0000 </r>
       <r>  -62.2607    1.0000 </r>
       <r>  -62.2462    1.0000 </r>
       <r>  -62.2390    1.0000 </r>
       <r>  -62.2387    1.0000 </r>
       <r>  -62.2293    1.0000 </r>
       <r>  -62.2282    1.0000 </r>
       <r>  -62.2050    1.0000 </r>
       <r>  -62.1623    1.0000 </r>
       <r>  -62.1273    1.0000 </r>
       <r>  -62.0731    1.0000 </r>
       <r>  -62.0442    1.0000 </r>
       <r>  -62.0277    1.0000 </r>
       <r>  -62.0197    1.0000 </r>
       <r>  -62.0192    1.0000 </r>
       <r>  -62.0160    1.0000 </r>
       <r>  -61.9787    1.0000 </r>
       <r>  -61.9427    1.0000 </r>
       <r>  -61.8335    1.0000 </r>
       <r>  -61.8261    1.0000 </r>
       <r>  -61.8069    1.0000 </r>
       <r>  -61.7678    1.0000 </r>
       <r>  -61.7561    1.0000 </r>
       <r>  -61.7325    1.0000 </r>
       <r>  -61.7197    1.0000 </r>
       <r>  -61.5973    1.0000 </r>
       <r>  -61.5740    1.0000 </r>
       <r>  -61.5445    1.0000 </r>
       <r>  -61.5371    1.0000 </r>
       <r>  -61.5053    1.0000 </r>
       <r>  -61.4997    1.0000 </r>
       <r>  -61.4942    1.0000 </r>
       <r>  -61.4092    1.0000 </r>
       <r>  -61.3685    1.0000 </r>
       <r>  -61.3681    1.0000 </r>
       <r>  -61.3650    1.0000 </r>
       <r>  -61.3644    1.0000 </r>
       <r>  -61.3543    1.0000 </r>
       <r>  -61.2480    1.0000 </r>
       <r>  -61.2417    1.0000 </r>
       <r>  -61.2193    1.0000 </r>
       <r>  -61.1807    1.0000 </r>
       <r>  -61.1461    1.0000 </r>
       <r>  -61.0535    1.0000 </r>
       <r>  -13.8814    1.0000 </r>
       <r>  -13.2643    1.0000 </r>
       <r>  -13.1244    1.0000 </r>
       <r>  -13.0952    1.0000 </r>
       <r>  -12.9265    1.0000 </r>
       <r>  -12.8939    1.0000 </r>
       <r>  -12.6713    1.0000 </r>
       <r>  -12.6658    1.0000 </r>
       <r>  -12.5973    1.0000 </r>
       <r>  -12.5746    1.0000 </r>
       <r>  -12.4827    1.0000 </r>
       <r>  -12.4163    1.0000 </r>
       <r>  -12.3320    1.0000 </r>
       <r>  -12.2429    1.0000 </r>
       <r>  -12.1881    1.0000 </r>
       <r>  -12.1084    1.0000 </r>
       <r>  -12.0497    1.0000 </r>
       <r>  -12.0192    1.0000 </r>
       <r>  -11.9982    1.0000 </r>
       <r>  -11.9779    1.0000 </r>
       <r>  -11.8431    1.0000 </r>
       <r>  -11.8196    1.0000 </r>
       <r>  -11.7861    1.0000 </r>
       <r>  -11.7760    1.0000 </r>
       <r>  -11.7046    1.0000 </r>
       <r>  -11.6677    1.0000 </r>
       <r>  -11.6077    1.0000 </r>
       <r>  -11.4870    1.0000 </r>
       <r>  -11.4470    1.0000 </r>
       <r>  -11.4028    1.0000 </r>
       <r>  -11.3401    1.0000 </r>
       <r>  -11.3156    1.0000 </r>
       <r>  -11.0849    1.0000 </r>
       <r>  -10.8846    1.0000 </r>
       <r>  -10.8175    1.0000 </r>
       <r>  -10.7086    1.0000 </r>
       <r>  -10.6229    1.0000 </r>
       <r>  -10.3674    1.0000 </r>
       <r>  -10.1927    1.0000 </r>
       <r>   -5.8376    1.0000 </r>
       <r>   -5.7491    1.0000 </r>
       <r>   -5.3475    1.0000 </r>
       <r>   -5.2960    1.0000 </r>
       <r>   -5.2728    1.0000 </r>
       <r>   -5.1008    1.0000 </r>
       <r>   -5.0573    1.0000 </r>
       <r>   -4.9961    1.0000 </r>
       <r>   -4.9755    1.0000 </r>
       <r>   -4.9456    1.0000 </r>
       <r>   -4.8532    1.0000 </r>
       <r>   -4.8295    1.0000 </r>
       <r>   -4.7720    1.0000 </r>
       <r>   -4.7450    1.0000 </r>
       <r>   -4.7128    1.0000 </r>
       <r>   -4.6852    1.0000 </r>
       <r>   -4.6428    1.0000 </r>
       <r>   -4.6210    1.0000 </r>
       <r>   -4.5868    1.0000 </r>
       <r>   -4.5561    1.0000 </r>
       <r>   -4.5251    1.0000 </r>
       <r>   -4.4697    1.0000 </r>
       <r>   -4.4486    1.0000 </r>
       <r>   -4.4011    1.0000 </r>
       <r>   -4.3131    1.0000 </r>
       <r>   -4.2670    1.0000 </r>
       <r>   -4.2443    1.0000 </r>
       <r>   -4.1902    1.0000 </r>
       <r>   -4.1294    1.0000 </r>
       <r>   -4.1161    1.0000 </r>
       <r>   -4.0395    1.0000 </r>
       <r>   -3.9973    1.0000 </r>
       <r>   -3.9495    1.0000 </r>
       <r>   -3.9124    1.0000 </r>
       <r>   -3.8449    1.0000 </r>
       <r>   -3.8285    1.0000 </r>
       <r>   -3.7798    1.0000 </r>
       <r>   -3.7121    1.0000 </r>
       <r>   -3.6749    1.0000 </r>
       <r>   -3.6051    1.0000 </r>
       <r>   -3.5559    1.0000 </r>
       <r>   -3.4875    1.0000 </r>
       <r>   -3.4232    1.0000 </r>
       <r>   -3.3958    1.0000 </r>
       <r>   -3.3547    1.0000 </r>
       <r>   -3.3273    1.0000 </r>
       <r>   -3.2984    1.0000 </r>
       <r>   -3.2331    1.0000 </r>
       <r>   -3.2028    1.0000 </r>
       <r>   -3.1903    1.0000 </r>
       <r>   -3.1627    1.0000 </r>
       <r>   -3.1345    1.0000 </r>
       <r>   -3.1025    1.0000 </r>
       <r>   -3.0691    1.0000 </r>
       <r>   -3.0608    1.0000 </r>
       <r>   -3.0301    1.0000 </r>
       <r>   -2.9827    1.0000 </r>
       <r>   -2.9622    1.0000 </r>
       <r>   -2.9512    1.0000 </r>
       <r>   -2.8735    1.0000 </r>
       <r>   -2.8616    1.0000 </r>
       <r>   -2.8529    1.0000 </r>
       <r>   -2.7952    1.0000 </r>
       <r>   -2.7547    1.0000 </r>
       <r>   -2.7220    1.0000 </r>
       <r>   -2.6891    1.0000 </r>
       <r>   -2.6718    1.0000 </r>
       <r>   -2.6464    1.0000 </r>
       <r>   -2.6378    1.0000 </r>
       <r>   -2.5985    1.0000 </r>
       <r>   -2.5900    1.0000 </r>
       <r>   -2.5421    1.0000 </r>
       <r>   -2.5122    1.0000 </r>
       <r>   -2.4991    1.0000 </r>
       <r>   -2.4868    1.0000 </r>
       <r>   -2.4590    1.0000 </r>
       <r>   -2.4485    1.0000 </r>
       <r>   -2.4217    1.0000 </r>
       <r>   -2.3827    1.0000 </r>
       <r>   -2.3565    1.0000 </r>
       <r>   -2.3505    1.0000 </r>
       <r>   -2.3180    1.0000 </r>
       <r>   -2.2982    1.0000 </r>
       <r>   -2.2922    1.0000 </r>
       <r>   -2.2788    1.0000 </r>
       <r>   -2.2534    1.0000 </r>
       <r>   -2.2300    1.0000 </r>
       <r>   -2.2019    1.0000 </r>
       <r>   -2.1755    1.0000 </r>
       <r>   -2.1232    1.0000 </r>
       <r>   -2.0989    1.0000 </r>
       <r>   -2.0654    1.0000 </r>
       <r>   -2.0227    1.0000 </r>
       <r>   -2.0060    1.0000 </r>
       <r>   -1.9873    1.0000 </r>
       <r>   -1.9797    1.0000 </r>
       <r>   -1.8914    1.0000 </r>
       <r>   -1.8395    1.0000 </r>
       <r>   -1.7953    1.0000 </r>
       <r>   -1.7783    1.0000 </r>
       <r>   -1.7465    1.0000 </r>
       <r>   -1.7281    1.0000 </r>
       <r>   -1.6684    1.0000 </r>
       <r>   -1.6613    1.0000 </r>
       <r>   -1.5910    1.0000 </r>
       <r>   -1.5531    1.0000 </r>
       <r>   -1.5113    1.0000 </r>
       <r>   -1.4660    1.0000 </r>
       <r>   -1.4214    1.0000 </r>
       <r>   -1.3869    1.0000 </r>
       <r>   -1.3508    1.0000 </r>
       <r>   -1.3267    1.0000 </r>
       <r>   -1.2959    1.0000 </r>
       <r>   -1.2915    1.0000 </r>
       <r>   -1.2520    1.0000 </r>
       <r>   -1.1737    1.0000 </r>
       <r>   -1.1684    1.0000 </r>
       <r>   -1.1357    1.0000 </r>
       <r>   -1.1144    1.0000 </r>
       <r>   -1.0397    1.0000 </r>
       <r>   -0.9808    1.0000 </r>
       <r>   -0.9741    1.0000 </r>
       <r>   -0.9436    1.0000 </r>
       <r>   -0.9327    1.0000 </r>
       <r>   -0.8989    1.0000 </r>
       <r>   -0.8792    1.0000 </r>
       <r>   -0.8683    1.0000 </r>
       <r>   -0.8333    1.0000 </r>
       <r>   -0.8104    1.0000 </r>
       <r>   -0.8059    1.0000 </r>
       <r>   -0.7802    1.0000 </r>
       <r>   -0.7619    1.0000 </r>
       <r>   -0.7467    1.0000 </r>
       <r>   -0.7212    1.0000 </r>
       <r>   -0.7100    1.0000 </r>
       <r>   -0.6860    1.0000 </r>
       <r>   -0.6633    1.0000 </r>
       <r>   -0.6365    1.0000 </r>
       <r>   -0.6230    1.0000 </r>
       <r>   -0.5911    1.0000 </r>
       <r>   -0.5848    1.0000 </r>
       <r>   -0.5672    1.0000 </r>
       <r>   -0.5571    1.0000 </r>
       <r>   -0.5359    1.0000 </r>
       <r>   -0.5280    1.0000 </r>
       <r>   -0.4785    1.0000 </r>
       <r>   -0.4675    1.0000 </r>
       <r>   -0.4551    1.0000 </r>
       <r>   -0.4401    1.0000 </r>
       <r>   -0.4161    1.0000 </r>
       <r>   -0.4019    1.0000 </r>
       <r>   -0.3895    1.0000 </r>
       <r>   -0.3759    1.0000 </r>
       <r>   -0.3646    1.0000 </r>
       <r>   -0.3466    1.0000 </r>
       <r>   -0.3378    1.0000 </r>
       <r>   -0.3148    1.0000 </r>
       <r>   -0.3096    1.0000 </r>
       <r>   -0.2909    1.0000 </r>
       <r>   -0.2838    1.0000 </r>
       <r>   -0.2716    1.0000 </r>
       <r>   -0.2616    1.0000 </r>
       <r>   -0.2584    1.0000 </r>
       <r>   -0.2389    1.0000 </r>
       <r>   -0.2306    1.0000 </r>
       <r>   -0.2209    1.0000 </r>
       <r>   -0.2161    1.0000 </r>
       <r>   -0.2031    1.0000 </r>
       <r>   -0.1944    1.0000 </r>
       <r>   -0.1912    1.0000 </r>
       <r>   -0.1684    1.0000 </r>
       <r>   -0.1641    1.0000 </r>
       <r>   -0.1549    1.0000 </r>
       <r>   -0.1465    1.0000 </r>
       <r>   -0.1327    1.0000 </r>
       <r>   -0.1238    1.0000 </r>
       <r>   -0.1216    1.0000 </r>
       <r>   -0.0997    1.0000 </r>
       <r>   -0.0931    1.0000 </r>
       <r>   -0.0857    1.0000 </r>
       <r>   -0.0698    1.0000 </r>
       <r>   -0.0590    1.0000 </r>
       <r>   -0.0529    1.0000 </r>
       <r>   -0.0490    1.0000 </r>
       <r>   -0.0350    1.0000 </r>
       <r>   -0.0276    1.0000 </r>
       <r>   -0.0135    1.0000 </r>
       <r>   -0.0071    1.0000 </r>
       <r>    0.0068    1.0000 </r>
       <r>    0.0092    1.0000 </r>
       <r>    0.0151    1.0000 </r>
       <r>    0.0208    1.0000 </r>
       <r>    0.0313    1.0000 </r>
       <r>    0.0480    1.0000 </r>
       <r>    0.0657    1.0000 </r>
       <r>    0.0720    1.0000 </r>
       <r>    0.0779    1.0000 </r>
       <r>    0.0934    1.0000 </r>
       <r>    0.1086    1.0000 </r>
       <r>    0.1153    1.0000 </r>
       <r>    0.1334    1.0000 </r>
       <r>    0.1357    1.0000 </r>
       <r>    0.1526    1.0000 </r>
       <r>    0.1732    1.0000 </r>
       <r>    0.1808    1.0000 </r>
       <r>    0.1926    1.0000 </r>
       <r>    0.2087    1.0000 </r>
       <r>    0.2093    1.0000 </r>
       <r>    0.2313    1.0000 </r>
       <r>    0.2409    1.0000 </r>
       <r>    0.2562    1.0000 </r>
       <r>    0.2720    1.0000 </r>
       <r>    0.2793    1.0000 </r>
       <r>    0.3076    1.0000 </r>
       <r>    0.3125    1.0000 </r>
       <r>    0.3346    1.0000 </r>
       <r>    0.3430    1.0000 </r>
       <r>    0.3589    1.0000 </r>
       <r>    0.3760    1.0000 </r>
       <r>    0.4005    1.0000 </r>
       <r>    0.4170    1.0000 </r>
       <r>    0.4307    1.0000 </r>
       <r>    0.4538    1.0000 </r>
       <r>    0.4580    1.0000 </r>
       <r>    0.4732    1.0000 </r>
       <r>    0.4843    1.0000 </r>
       <r>    0.4969    1.0000 </r>
       <r>    0.5216    1.0000 </r>
       <r>    0.5409    1.0000 </r>
       <r>    0.5770    1.0000 </r>
       <r>    0.5990    1.0000 </r>
       <r>    0.6263    1.0000 </r>
       <r>    0.6436    1.0000 </r>
       <r>    0.6512    1.0000 </r>
       <r>    0.6604    1.0000 </r>
       <r>    0.6813    1.0000 </r>
       <r>    0.7139    1.0000 </r>
       <r>    0.7198    1.0000 </r>
       <r>    0.7410    1.0000 </r>
       <r>    0.7537    1.0000 </r>
       <r>    0.7720    1.0000 </r>
       <r>    0.7928    1.0000 </r>
       <r>    0.7968    1.0000 </r>
       <r>    0.8263    1.0000 </r>
       <r>    0.8333    1.0000 </r>
       <r>    0.8737    1.0000 </r>
       <r>    0.8837    1.0000 </r>
       <r>    0.8981    1.0000 </r>
       <r>    0.9034    1.0000 </r>
       <r>    0.9250    1.0000 </r>
       <r>    0.9303    1.0000 </r>
       <r>    0.9567    1.0000 </r>
       <r>    0.9733    1.0000 </r>
       <r>    1.0033    1.0000 </r>
       <r>    1.0161    1.0000 </r>
       <r>    1.0322    0.9999 </r>
       <r>    1.0470    0.9999 </r>
       <r>    1.0531    0.9999 </r>
       <r>    1.0680    0.9998 </r>
       <r>    1.0943    0.9996 </r>
       <r>    1.1157    0.9993 </r>
       <r>    1.1401    0.9988 </r>
       <r>    1.1779    0.9972 </r>
       <r>    1.2369    0.9907 </r>
       <r>    1.2684    0.9835 </r>
       <r>    1.3151    0.9642 </r>
       <r>    1.3549    0.9359 </r>
       <r>    1.3892    0.8994 </r>
       <r>    1.4288    0.8409 </r>
       <r>    1.4683    0.7641 </r>
       <r>    1.4938    0.7051 </r>
       <r>    1.5123    0.6583 </r>
       <r>    1.5380    0.5896 </r>
       <r>    1.5785    0.4761 </r>
       <r>    1.6114    0.3850 </r>
       <r>    1.6334    0.3271 </r>
       <r>    1.6756    0.2276 </r>
       <r>    1.7681    0.0807 </r>
       <r>    1.7855    0.0638 </r>
       <r>    1.8305    0.0328 </r>
       <r>    1.8521    0.0230 </r>
       <r>    1.8640    0.0188 </r>
       <r>    1.8783    0.0146 </r>
       <r>    1.8959    0.0106 </r>
       <r>    1.9287    0.0056 </r>
       <r>    1.9473    0.0038 </r>
       <r>    1.9726    0.0022 </r>
       <r>    1.9994    0.0012 </r>
       <r>    2.0391    0.0005 </r>
       <r>    2.0540    0.0003 </r>
       <r>    2.1207    0.0000 </r>
       <r>    2.1797    0.0000 </r>
       <r>    2.1875    0.0000 </r>
       <r>    2.2071    0.0000 </r>
       <r>    2.2148    0.0000 </r>
       <r>    2.2359    0.0000 </r>
       <r>    2.2646    0.0000 </r>
       <r>    2.2848    0.0000 </r>
       <r>    2.2952    0.0000 </r>
       <r>    2.3323    0.0000 </r>
       <r>    2.4144    0.0000 </r>
       <r>    2.4470    0.0000 </r>
       <r>    2.4946    0.0000 </r>
       <r>    2.5176    0.0000 </r>
       <r>    2.5450    0.0000 </r>
       <r>    2.5626    0.0000 </r>
       <r>    2.6279    0.0000 </r>
       <r>    2.6534    0.0000 </r>
       <r>    2.6830    0.0000 </r>
       <r>    2.7420    0.0000 </r>
       <r>    2.7775    0.0000 </r>
       <r>    2.8011    0.0000 </r>
       <r>    2.8703    0.0000 </r>
       <r>    3.3517    0.0000 </r>
       <r>    3.7309    0.0000 </r>
       <r>    3.8107    0.0000 </r>
       <r>    4.1688    0.0000 </r>
       <r>    4.5766    0.0000 </r>
       <r>    4.7133    0.0000 </r>
       <r>    4.7764    0.0000 </r>
       <r>    4.9546    0.0000 </r>
       <r>    5.0388    0.0000 </r>
       <r>    5.1071    0.0000 </r>
       <r>    5.1878    0.0000 </r>
       <r>    5.2801    0.0000 </r>
       <r>    5.4487    0.0000 </r>
       <r>    5.6223    0.0000 </r>
       <r>    5.7148    0.0000 </r>
       <r>    5.8243    0.0000 </r>
       <r>    5.9434    0.0000 </r>
       <r>    5.9762    0.0000 </r>
       <r>    6.0813    0.0000 </r>
       <r>    6.1542    0.0000 </r>
       <r>    6.2102    0.0000 </r>
       <r>    6.2668    0.0000 </r>
       <r>    6.3483    0.0000 </r>
       <r>    6.3833    0.0000 </r>
       <r>    6.4603    0.0000 </r>
       <r>    6.5867    0.0000 </r>
       <r>    6.5923    0.0000 </r>
       <r>    6.6612    0.0000 </r>
       <r>    6.7463    0.0000 </r>
       <r>    6.7835    0.0000 </r>
       <r>    6.8471    0.0000 </r>
       <r>    6.9367    0.0000 </r>
       <r>    6.9891    0.0000 </r>
       <r>    7.0089    0.0000 </r>
       <r>    7.0520    0.0000 </r>
       <r>    7.0549    0.0000 </r>
       <r>    7.1782    0.0000 </r>
       <r>    7.1888    0.0000 </r>
       <r>    7.2289    0.0000 </r>
       <r>    7.2998    0.0000 </r>
       <r>    7.3249    0.0000 </r>
       <r>    7.4080    0.0000 </r>
       <r>    7.4187    0.0000 </r>
       <r>    7.4926    0.0000 </r>
       <r>    7.5125    0.0000 </r>
       <r>    7.5518    0.0000 </r>
       <r>    7.5672    0.0000 </r>
       <r>    7.6011    0.0000 </r>
       <r>    7.6180    0.0000 </r>
       <r>    7.7212    0.0000 </r>
       <r>    7.7591    0.0000 </r>
      </set>
     </set>
    </set>
   </array>
  </eigenvalues>
  <separator name="orbital magnetization" >
   <v name="MAGDIPOLOUT">      0.00000000      0.00000000      0.00000000</v>
  </separator>
  <dos>
   <i name="efermi">      1.57001297 </i>
   <total>
    <array>
     <dimension dim="1">gridpoints</dimension>
     <dimension dim="2">spin</dimension>
     <field>energy</field>
     <field>total</field>
     <field>integrated</field>
     <set>
      <set comment="spin 1">
       <r>   -66.1468     0.0000     0.0000 </r>
       <r>   -65.8888     0.0000     0.0000 </r>
       <r>   -65.6307     0.0000     0.0000 </r>
       <r>   -65.3726     0.0000     0.0000 </r>
       <r>   -65.1145     0.0000     0.0000 </r>
       <r>   -64.8564     0.0000     0.0000 </r>
       <r>   -64.5983     0.0000     0.0000 </r>
       <r>   -64.3403     0.0000     0.0000 </r>
       <r>   -64.0822     0.0000     0.0000 </r>
       <r>   -63.8241     0.0000     0.0000 </r>
       <r>   -63.5660     0.0000     0.0000 </r>
       <r>   -63.3079     0.0000     0.0000 </r>
       <r>   -63.0498     0.0592     0.0153 </r>
       <r>   -62.7918    11.7108     3.0377 </r>
       <r>   -62.5337   178.0024    48.9773 </r>
       <r>   -62.2756   326.4721   133.2346 </r>
       <r>   -62.0175   151.3076   172.2847 </r>
       <r>   -61.7594    68.4118   189.9407 </r>
       <r>   -61.5013    63.2898   206.2748 </r>
       <r>   -61.2432    67.4888   223.6926 </r>
       <r>   -60.9852    34.8147   232.6777 </r>
       <r>   -60.7271     5.0212   233.9736 </r>
       <r>   -60.4690     0.1022   234.0000 </r>
       <r>   -60.2109     0.0001   234.0000 </r>
       <r>   -59.9528     0.0000   234.0000 </r>
       <r>   -59.6947     0.0000   234.0000 </r>
       <r>   -59.4367     0.0000   234.0000 </r>
       <r>   -59.1786     0.0000   234.0000 </r>
       <r>   -58.9205     0.0000   234.0000 </r>
       <r>   -58.6624     0.0000   234.0000 </r>
       <r>   -58.4043     0.0000   234.0000 </r>
       <r>   -58.1462     0.0000   234.0000 </r>
       <r>   -57.8882     0.0000   234.0000 </r>
       <r>   -57.6301     0.0000   234.0000 </r>
       <r>   -57.3720     0.0000   234.0000 </r>
       <r>   -57.1139     0.0000   234.0000 </r>
       <r>   -56.8558     0.0000   234.0000 </r>
       <r>   -56.5977     0.0000   234.0000 </r>
       <r>   -56.3396     0.0000   234.0000 </r>
       <r>   -56.0816     0.0000   234.0000 </r>
       <r>   -55.8235     0.0000   234.0000 </r>
       <r>   -55.5654     0.0000   234.0000 </r>
       <r>   -55.3073     0.0000   234.0000 </r>
       <r>   -55.0492     0.0000   234.0000 </r>
       <r>   -54.7911     0.0000   234.0000 </r>
       <r>   -54.5331     0.0000   234.0000 </r>
       <r>   -54.2750     0.0000   234.0000 </r>
       <r>   -54.0169     0.0000   234.0000 </r>
       <r>   -53.7588     0.0000   234.0000 </r>
       <r>   -53.5007     0.0000   234.0000 </r>
       <r>   -53.2426     0.0000   234.0000 </r>
       <r>   -52.9846     0.0000   234.0000 </r>
       <r>   -52.7265     0.0000   234.0000 </r>
       <r>   -52.4684     0.0000   234.0000 </r>
       <r>   -52.2103     0.0000   234.0000 </r>
       <r>   -51.9522     0.0000   234.0000 </r>
       <r>   -51.6941     0.0000   234.0000 </r>
       <r>   -51.4360     0.0000   234.0000 </r>
       <r>   -51.1780     0.0000   234.0000 </r>
       <r>   -50.9199     0.0000   234.0000 </r>
       <r>   -50.6618     0.0000   234.0000 </r>
       <r>   -50.4037     0.0000   234.0000 </r>
       <r>   -50.1456     0.0000   234.0000 </r>
       <r>   -49.8875     0.0000   234.0000 </r>
       <r>   -49.6295     0.0000   234.0000 </r>
       <r>   -49.3714     0.0000   234.0000 </r>
       <r>   -49.1133     0.0000   234.0000 </r>
       <r>   -48.8552     0.0000   234.0000 </r>
       <r>   -48.5971     0.0000   234.0000 </r>
       <r>   -48.3390     0.0000   234.0000 </r>
       <r>   -48.0810     0.0000   234.0000 </r>
       <r>   -47.8229     0.0000   234.0000 </r>
       <r>   -47.5648     0.0000   234.0000 </r>
       <r>   -47.3067     0.0000   234.0000 </r>
       <r>   -47.0486     0.0000   234.0000 </r>
       <r>   -46.7905     0.0000   234.0000 </r>
       <r>   -46.5324     0.0000   234.0000 </r>
       <r>   -46.2744     0.0000   234.0000 </r>
       <r>   -46.0163     0.0000   234.0000 </r>
       <r>   -45.7582     0.0000   234.0000 </r>
       <r>   -45.5001     0.0000   234.0000 </r>
       <r>   -45.2420     0.0000   234.0000 </r>
       <r>   -44.9839     0.0000   234.0000 </r>
       <r>   -44.7259     0.0000   234.0000 </r>
       <r>   -44.4678     0.0000   234.0000 </r>
       <r>   -44.2097     0.0000   234.0000 </r>
       <r>   -43.9516     0.0000   234.0000 </r>
       <r>   -43.6935     0.0000   234.0000 </r>
       <r>   -43.4354     0.0000   234.0000 </r>
       <r>   -43.1774     0.0000   234.0000 </r>
       <r>   -42.9193     0.0000   234.0000 </r>
       <r>   -42.6612     0.0000   234.0000 </r>
       <r>   -42.4031     0.0000   234.0000 </r>
       <r>   -42.1450     0.0000   234.0000 </r>
       <r>   -41.8869     0.0000   234.0000 </r>
       <r>   -41.6288     0.0000   234.0000 </r>
       <r>   -41.3708     0.0000   234.0000 </r>
       <r>   -41.1127     0.0000   234.0000 </r>
       <r>   -40.8546     0.0000   234.0000 </r>
       <r>   -40.5965     0.0000   234.0000 </r>
       <r>   -40.3384     0.0000   234.0000 </r>
       <r>   -40.0803     0.0000   234.0000 </r>
       <r>   -39.8223     0.0000   234.0000 </r>
       <r>   -39.5642     0.0000   234.0000 </r>
       <r>   -39.3061     0.0000   234.0000 </r>
       <r>   -39.0480     0.0000   234.0000 </r>
       <r>   -38.7899     0.0000   234.0000 </r>
       <r>   -38.5318     0.0000   234.0000 </r>
       <r>   -38.2738     0.0000   234.0000 </r>
       <r>   -38.0157     0.0000   234.0000 </r>
       <r>   -37.7576     0.0000   234.0000 </r>
       <r>   -37.4995     0.0000   234.0000 </r>
       <r>   -37.2414     0.0000   234.0000 </r>
       <r>   -36.9833     0.0000   234.0000 </r>
       <r>   -36.7252     0.0000   234.0000 </r>
       <r>   -36.4672     0.0000   234.0000 </r>
       <r>   -36.2091     0.0000   234.0000 </r>
       <r>   -35.9510     0.0000   234.0000 </r>
       <r>   -35.6929     0.0000   234.0000 </r>
       <r>   -35.4348     0.0000   234.0000 </r>
       <r>   -35.1767     0.0000   234.0000 </r>
       <r>   -34.9187     0.0000   234.0000 </r>
       <r>   -34.6606     0.0000   234.0000 </r>
       <r>   -34.4025     0.0000   234.0000 </r>
       <r>   -34.1444     0.0000   234.0000 </r>
       <r>   -33.8863     0.0000   234.0000 </r>
       <r>   -33.6282     0.0000   234.0000 </r>
       <r>   -33.3702     0.0000   234.0000 </r>
       <r>   -33.1121     0.0000   234.0000 </r>
       <r>   -32.8540     0.0000   234.0000 </r>
       <r>   -32.5959     0.0000   234.0000 </r>
       <r>   -32.3378     0.0000   234.0000 </r>
       <r>   -32.0797     0.0000   234.0000 </r>
       <r>   -31.8216     0.0000   234.0000 </r>
       <r>   -31.5636     0.0000   234.0000 </r>
       <r>   -31.3055     0.0000   234.0000 </r>
       <r>   -31.0474     0.0000   234.0000 </r>
       <r>   -30.7893     0.0000   234.0000 </r>
       <r>   -30.5312     0.0000   234.0000 </r>
       <r>   -30.2731     0.0000   234.0000 </r>
       <r>   -30.0151     0.0000   234.0000 </r>
       <r>   -29.7570     0.0000   234.0000 </r>
       <r>   -29.4989     0.0000   234.0000 </r>
       <r>   -29.2408     0.0000   234.0000 </r>
       <r>   -28.9827     0.0000   234.0000 </r>
       <r>   -28.7246     0.0000   234.0000 </r>
       <r>   -28.4666     0.0000   234.0000 </r>
       <r>   -28.2085     0.0000   234.0000 </r>
       <r>   -27.9504     0.0000   234.0000 </r>
       <r>   -27.6923     0.0000   234.0000 </r>
       <r>   -27.4342     0.0000   234.0000 </r>
       <r>   -27.1761     0.0000   234.0000 </r>
       <r>   -26.9180     0.0000   234.0000 </r>
       <r>   -26.6600     0.0000   234.0000 </r>
       <r>   -26.4019     0.0000   234.0000 </r>
       <r>   -26.1438     0.0000   234.0000 </r>
       <r>   -25.8857     0.0000   234.0000 </r>
       <r>   -25.6276     0.0000   234.0000 </r>
       <r>   -25.3695     0.0000   234.0000 </r>
       <r>   -25.1115     0.0000   234.0000 </r>
       <r>   -24.8534     0.0000   234.0000 </r>
       <r>   -24.5953     0.0000   234.0000 </r>
       <r>   -24.3372     0.0000   234.0000 </r>
       <r>   -24.0791     0.0000   234.0000 </r>
       <r>   -23.8210     0.0000   234.0000 </r>
       <r>   -23.5630     0.0000   234.0000 </r>
       <r>   -23.3049     0.0000   234.0000 </r>
       <r>   -23.0468     0.0000   234.0000 </r>
       <r>   -22.7887     0.0000   234.0000 </r>
       <r>   -22.5306     0.0000   234.0000 </r>
       <r>   -22.2725     0.0000   234.0000 </r>
       <r>   -22.0144     0.0000   234.0000 </r>
       <r>   -21.7564     0.0000   234.0000 </r>
       <r>   -21.4983     0.0000   234.0000 </r>
       <r>   -21.2402     0.0000   234.0000 </r>
       <r>   -20.9821     0.0000   234.0000 </r>
       <r>   -20.7240     0.0000   234.0000 </r>
       <r>   -20.4659     0.0000   234.0000 </r>
       <r>   -20.2079     0.0000   234.0000 </r>
       <r>   -19.9498     0.0000   234.0000 </r>
       <r>   -19.6917     0.0000   234.0000 </r>
       <r>   -19.4336     0.0000   234.0000 </r>
       <r>   -19.1755     0.0000   234.0000 </r>
       <r>   -18.9174     0.0000   234.0000 </r>
       <r>   -18.6594     0.0000   234.0000 </r>
       <r>   -18.4013     0.0000   234.0000 </r>
       <r>   -18.1432     0.0000   234.0000 </r>
       <r>   -17.8851     0.0000   234.0000 </r>
       <r>   -17.6270     0.0000   234.0000 </r>
       <r>   -17.3689     0.0000   234.0000 </r>
       <r>   -17.1108     0.0000   234.0000 </r>
       <r>   -16.8528     0.0000   234.0000 </r>
       <r>   -16.5947     0.0000   234.0000 </r>
       <r>   -16.3366     0.0000   234.0000 </r>
       <r>   -16.0785     0.0000   234.0000 </r>
       <r>   -15.8204     0.0000   234.0000 </r>
       <r>   -15.5623     0.0000   234.0000 </r>
       <r>   -15.3043     0.0000   234.0000 </r>
       <r>   -15.0462     0.0000   234.0000 </r>
       <r>   -14.7881     0.0000   234.0000 </r>
       <r>   -14.5300     0.0000   234.0000 </r>
       <r>   -14.2719     0.0223   234.0058 </r>
       <r>   -14.0138     1.3295   234.3489 </r>
       <r>   -13.7558     4.9487   235.6261 </r>
       <r>   -13.4977     1.8560   236.1051 </r>
       <r>   -13.2396     6.9663   237.9030 </r>
       <r>   -12.9815    17.8848   242.5188 </r>
       <r>   -12.7234    20.4424   247.7946 </r>
       <r>   -12.4653    28.9289   255.2607 </r>
       <r>   -12.2072    28.8441   262.7049 </r>
       <r>   -11.9492    37.4421   272.3682 </r>
       <r>   -11.6911    41.1675   282.9928 </r>
       <r>   -11.4330    33.8651   291.7329 </r>
       <r>   -11.1749    23.5977   297.8231 </r>
       <r>   -10.9168    13.2326   301.2382 </r>
       <r>   -10.6587    17.4486   305.7414 </r>
       <r>   -10.4007    11.8742   308.8060 </r>
       <r>   -10.1426     9.1384   311.1644 </r>
       <r>    -9.8845     3.1216   311.9701 </r>
       <r>    -9.6264     0.1157   311.9999 </r>
       <r>    -9.3683     0.0002   312.0000 </r>
       <r>    -9.1102     0.0000   312.0000 </r>
       <r>    -8.8522     0.0000   312.0000 </r>
       <r>    -8.5941     0.0000   312.0000 </r>
       <r>    -8.3360     0.0000   312.0000 </r>
       <r>    -8.0779     0.0000   312.0000 </r>
       <r>    -7.8198     0.0000   312.0000 </r>
       <r>    -7.5617     0.0000   312.0000 </r>
       <r>    -7.3036     0.0000   312.0000 </r>
       <r>    -7.0456     0.0000   312.0000 </r>
       <r>    -6.7875     0.0000   312.0000 </r>
       <r>    -6.5294     0.0000   312.0000 </r>
       <r>    -6.2713     0.0092   312.0024 </r>
       <r>    -6.0132     1.0607   312.2761 </r>
       <r>    -5.7551     8.2752   314.4118 </r>
       <r>    -5.4971     7.9952   316.4753 </r>
       <r>    -5.2390    16.7009   320.7855 </r>
       <r>    -4.9809    31.1208   328.8173 </r>
       <r>    -4.7228    47.1703   340.9912 </r>
       <r>    -4.4647    53.8816   354.8972 </r>
       <r>    -4.2066    43.9377   366.2368 </r>
       <r>    -3.9486    42.5479   377.2177 </r>
       <r>    -3.6905    41.1619   387.8410 </r>
       <r>    -3.4324    39.9712   398.1569 </r>
       <r>    -3.1743    55.6187   412.5112 </r>
       <r>    -2.9162    66.1194   429.5756 </r>
       <r>    -2.6581    67.8877   447.0963 </r>
       <r>    -2.4000    82.8346   468.4746 </r>
       <r>    -2.1420    81.8178   489.5905 </r>
       <r>    -1.8839    61.6432   505.4996 </r>
       <r>    -1.6258    53.4592   519.2966 </r>
       <r>    -1.3677    53.2477   533.0390 </r>
       <r>    -1.1096    58.4107   548.1139 </r>
       <r>    -0.8515    73.0519   566.9674 </r>
       <r>    -0.5935   100.0312   592.7839 </r>
       <r>    -0.3354   128.4328   625.9304 </r>
       <r>    -0.0773   180.7765   672.5859 </r>
       <r>     0.1808   181.5021   719.4288 </r>
       <r>     0.4389   139.3320   755.3882 </r>
       <r>     0.6970   113.4523   784.6684 </r>
       <r>     0.9550   113.1688   813.8755 </r>
       <r>     1.2131    89.2700   836.9147 </r>
       <r>     1.4712    59.2815   852.2143 </r>
       <r>     1.7293    58.3449   867.2722 </r>
       <r>     1.9874    67.7374   884.7541 </r>
       <r>     2.2455    69.5795   902.7115 </r>
       <r>     2.5036    61.1343   918.4893 </r>
       <r>     2.7616    50.0391   931.4036 </r>
       <r>     3.0197    23.3684   937.4346 </r>
       <r>     3.2778     4.5053   938.5974 </r>
       <r>     3.5359     5.5395   940.0270 </r>
       <r>     3.7940     8.6385   942.2565 </r>
       <r>     4.0521     7.9118   944.2984 </r>
       <r>     4.3101     5.6127   945.7470 </r>
       <r>     4.5682     6.4098   947.4012 </r>
       <r>     4.8263    15.2244   951.3304 </r>
       <r>     5.0844    19.5247   956.3694 </r>
       <r>     5.3425    19.6563   961.4424 </r>
       <r>     5.6006    14.2658   965.1242 </r>
       <r>     5.8586    18.5391   969.9088 </r>
       <r>     6.1167    25.0729   976.3798 </r>
       <r>     6.3748    29.9435   984.1077 </r>
       <r>     6.6329    30.0495   991.8630 </r>
       <r>     6.8910    33.6909  1000.5581 </r>
       <r>     7.1491    40.8047  1011.0891 </r>
       <r>     7.4072    43.6869  1022.3640 </r>
       <r>     7.6652    45.9306  1034.2180 </r>
       <r>     7.9233    20.5471  1039.5209 </r>
       <r>     8.1814     1.8406  1039.9959 </r>
       <r>     8.4395     0.0159  1040.0000 </r>
       <r>     8.6976     0.0000  1040.0000 </r>
       <r>     8.9557     0.0000  1040.0000 </r>
       <r>     9.2137     0.0000  1040.0000 </r>
       <r>     9.4718     0.0000  1040.0000 </r>
       <r>     9.7299     0.0000  1040.0000 </r>
       <r>     9.9880     0.0000  1040.0000 </r>
       <r>    10.2461     0.0000  1040.0000 </r>
       <r>    10.5042     0.0000  1040.0000 </r>
       <r>    10.7622     0.0000  1040.0000 </r>
       <r>    11.0203     0.0000  1040.0000 </r>
       <r>    11.2784     0.0000  1040.0000 </r>
      </set>
     </set>
    </array>
   </total>
  </dos>
 </calculation>
 <structure name="finalpos" >
  <crystal>
   <varray name="basis" >
    <v>       8.70073080      -4.00539907       0.00000000 </v>
    <v>       0.00000000      11.45278367       0.00000000 </v>
    <v>       0.00000000       0.00000000      20.84683014 </v>
   </varray>
   <i name="volume">   2077.33633233 </i>
   <varray name="rec_basis" >
    <v>       0.11493287       0.00000000       0.00000000 </v>
    <v>       0.04019565       0.08731502       0.00000000 </v>
    <v>       0.00000000       0.00000000       0.04796892 </v>
   </varray>
  </crystal>
  <varray name="positions" >
   <v>       0.63793591       0.42904558       0.08004781 </v>
   <v>       0.72899292       0.61115959       0.20011952 </v>
   <v>       0.82004993       0.79327361       0.32019124 </v>
   <v>       0.91110694       0.97538762       0.44026296 </v>
   <v>       0.45636426       0.06590227       0.28016734 </v>
   <v>       0.54742127       0.24801628       0.40023905 </v>
   <v>       0.63847827       0.43013030       0.52031076 </v>
   <v>       0.27425024       0.70167424       0.04002390 </v>
   <v>       0.36530725       0.88378825       0.16009562 </v>
   <v>       0.00162158       0.15641692       0.12007172 </v>
   <v>       0.09267859       0.33853093       0.24014343 </v>
   <v>       0.18373560       0.52064495       0.36021514 </v>
   <v>       0.27479261       0.70275896       0.48028686 </v>
   <v>       0.91056458       0.97430290       0.00000000 </v>
   <v>       0.59499452       0.07895679       0.02342343 </v>
   <v>       0.68605153       0.26107081       0.14349515 </v>
   <v>       0.77710854       0.44318482       0.26356686 </v>
   <v>       0.86816554       0.62529884       0.38363857 </v>
   <v>       0.95922255       0.80741285       0.50371029 </v>
   <v>       0.59553688       0.08004151       0.46368639 </v>
   <v>       0.32236586       0.53369947       0.10347124 </v>
   <v>       0.41342287       0.71581348       0.22354295 </v>
   <v>       0.50447988       0.89792750       0.34361467 </v>
   <v>       0.14079421       0.17055616       0.30359077 </v>
   <v>       0.23185121       0.35267018       0.42366248 </v>
   <v>       0.04973720       0.98844215       0.18351905 </v>
   <v>       0.95868019       0.80632813       0.06344733 </v>
   <v>       0.08425593       0.79327361       0.32019124 </v>
   <v>       0.90214191       0.42904558       0.08004781 </v>
   <v>       0.99319892       0.61115959       0.20011952 </v>
   <v>       0.72057026       0.06590227       0.28016734 </v>
   <v>       0.81162727       0.24801628       0.40023905 </v>
   <v>       0.53845624       0.70167424       0.04002390 </v>
   <v>       0.62951325       0.88378825       0.16009562 </v>
   <v>       0.26582758       0.15641692       0.12007172 </v>
   <v>       0.35688459       0.33853093       0.24014343 </v>
   <v>       0.44794160       0.52064495       0.36021514 </v>
   <v>       0.53899861       0.70275896       0.48028686 </v>
   <v>       0.17477058       0.97430290       0.00000000 </v>
   <v>       0.01340710       0.57935194       0.31115216 </v>
   <v>       0.10446410       0.76146596       0.43122388 </v>
   <v>       0.83129308       0.21512391       0.07100873 </v>
   <v>       0.92235009       0.39723793       0.19108045 </v>
   <v>       0.74077844       0.03409462       0.39119997 </v>
   <v>       0.83183544       0.21620863       0.51127169 </v>
   <v>       0.46760741       0.48775257       0.03098483 </v>
   <v>       0.55866442       0.66986659       0.15105654 </v>
   <v>       0.64972143       0.85198060       0.27112826 </v>
   <v>       0.28603576       0.12460926       0.23110435 </v>
   <v>       0.37709277       0.30672328       0.35117607 </v>
   <v>       0.46814977       0.48883730       0.47124778 </v>
   <v>       0.19497875       0.94249525       0.11103264 </v>
   <v>       0.13425249       0.15747274       0.47050414 </v>
   <v>       0.04319549       0.97535872       0.35043242 </v>
   <v>       0.86108147       0.61113069       0.11028899 </v>
   <v>       0.95213848       0.79324471       0.23036071 </v>
   <v>       0.58845281       0.06587337       0.19033680 </v>
   <v>       0.67950982       0.24798738       0.31040852 </v>
   <v>       0.77056683       0.43010140       0.43048023 </v>
   <v>       0.49739580       0.88375935       0.07026509 </v>
   <v>       0.13371013       0.15638801       0.03024118 </v>
   <v>       0.22476714       0.33850203       0.15031290 </v>
   <v>       0.31582415       0.52061604       0.27038461 </v>
   <v>       0.40688116       0.70273006       0.39045633 </v>
   <v>       0.49793816       0.88484407       0.51052804 </v>
   <v>       0.49486308       0.21512391       0.07100873 </v>
   <v>       0.58592009       0.39723793       0.19108045 </v>
   <v>       0.67697710       0.57935194       0.31115216 </v>
   <v>       0.76803410       0.76146596       0.43122388 </v>
   <v>       0.40434844       0.03409462       0.39119997 </v>
   <v>       0.49540544       0.21620863       0.51127169 </v>
   <v>       0.13117741       0.48775257       0.03098483 </v>
   <v>       0.22223442       0.66986659       0.15105654 </v>
   <v>       0.31329143       0.85198060       0.27112826 </v>
   <v>       0.04066277       0.30672328       0.35117607 </v>
   <v>       0.13171977       0.48883730       0.47124778 </v>
   <v>       0.94960576       0.12460926       0.23110435 </v>
   <v>       0.85854875       0.94249525       0.11103264 </v>
  </varray>
 </structure>
</modeling>
