
72 atoms
2 atom types
   0.0000000000   16.8846940542 xlo xhi
   0.0000000000    9.5784100000 ylo yhi
   0.0000000000   15.7901416898 zlo zhi
   0.0000000000    0.0000000000    0.0000000000 xy xz yz

Atoms # atomic

     1      1   13.1708432418    1.3917137972    1.5708038006
     2      1   13.7545126198    1.3917137972    4.6553473613
     3      1    4.4366615172    6.1809187972    0.0285320281
     4      1    5.0203308953    6.1809187972    3.1130755889
     5      1    7.3480554254    1.3917137972    0.5426226137
     6      1    7.9317248035    1.3917137972    3.6271661744
     7      1   16.0822371500    6.1809187972    2.0848944019
     8      1   16.6659065280    6.1809187972    5.1694379627
     9      1    2.1089370040    1.3917137972    2.5989849875
    10      1    2.6926063820    1.3917137972    5.6835285483
    11      1   10.2594493336    6.1809187972    1.0567132150
    12      1   10.8431187116    6.1809187972    4.1412567758
    13      1   15.3242575016    0.1263771009    1.1633263569
    14      1   15.9079268796    0.1263771009    4.2478699176
    15      1    7.1737451720    4.9155821009    2.7055981294
    16      1    7.7574145500    4.9155821009    5.7901416901
    17      1    9.5014696853    0.1263771009    0.1351451700
    18      1   10.0851390633    0.1263771009    3.2196887307
    19      1    1.3509573556    4.9155821009    1.6774169425
    20      1    1.9346267336    4.9155821009    4.7619605032
    21      1    4.2623512638    0.1263771009    2.1915075438
    22      1    4.8460206418    0.1263771009    5.2760510888
    23      1   12.4128635934    4.9155821009    0.6492357555
    24      1   12.9965329715    4.9155821009    3.7337793163
    25      1   15.3242575016    2.6570504934    1.1633263569
    26      1   15.9079268796    2.6570504934    4.2478699176
    27      1    7.1737451720    7.4462554934    2.7055981294
    28      1    7.7574145500    7.4462554934    5.7901416901
    29      1    9.5014696853    2.6570504934    0.1351451700
    30      1   10.0851390633    2.6570504934    3.2196887307
    31      1    1.3509573556    7.4462554934    1.6774169425
    32      1    1.9346267336    7.4462554934    4.7619605032
    33      1    4.2623512638    2.6570504934    2.1915075438
    34      1    4.8460206418    2.6570504934    5.2760510888
    35      1   12.4128635934    7.4462554934    0.6492357555
    36      1   12.9965329715    7.4462554934    3.7337793163
    37      2    0.4394944537    1.3917137972    5.6549965201
    38      2   16.7405191299    1.3917137972    2.5704529594
    39      2    8.0063374054    6.1809187972    1.0281811869
    40      2    8.5900067834    6.1809187972    4.1127247477
    41      2   10.9177313135    1.3917137972    1.5422717725
    42      2   11.5014006916    1.3917137972    4.6268153332
    43      2    2.1835495890    6.1809187972    0.0000000000
    44      2    2.7672189670    6.1809187972    3.0845435607
    45      2    5.0949434972    1.3917137972    0.5140905856
    46      2    5.6786128752    1.3917137972    3.5986341463
    47      2   13.8291252217    6.1809187972    2.0563623738
    48      2   14.4127945998    6.1809187972    5.1409059346
    49      2   13.4147728710    3.0029460353    0.0047759020
    50      2   13.9984422659    3.0029460353    3.0893194628
    51      2    5.2642605414    7.7921510353    1.5470476745
    52      2    5.8479299194    7.7921510353    4.6315912353
    53      2    8.1756544496    3.0029460353    2.0611382759
    54      2    8.7593238276    3.0029460353    5.1456818366
    55      2    0.0251421030    7.7921510353    3.6034100484
    56      2   16.3261667792    7.7921510353    0.5188664876
    57      2    2.3528666332    3.0029460353    1.0329570890
    58      2    2.9365360112    3.0029460353    4.1175006497
    59      2   11.0870483577    7.7921510353    2.5752288614
    60      2   11.6707177358    7.7921510353    5.6597724222
    61      2    5.2642605414    4.5696865590    1.5470476745
    62      2    5.8479299194    4.5696865590    4.6315912353
    63      2   13.4147728710    9.3588915590    0.0047759020
    64      2   13.9984422659    9.3588915590    3.0893194628
    65      2    0.0251421030    4.5696865590    3.6034100484
    66      2   16.3261667792    4.5696865590    0.5188664876
    67      2    8.1756544496    9.3588915590    2.0611382759
    68      2    8.7593238276    9.3588915590    5.1456818366
    69      2   11.0870483577    4.5696865590    2.5752288614
    70      2   11.6707177358    4.5696865590    5.6597724222
    71      2    2.3528666332    9.3588915590    1.0329570890
    72      2    2.9365360112    9.3588915590    4.1175006497
