 vasp.5.4.4.18Apr17-6-g9f103f2a35 (build Aug 13 2019 17:33:20) gamma-only       
  
 executed on             LinuxIFC date 2020.05.10  11:23:28
 running on   12 total cores
 distrk:  each k-point on   12 cores,    1 groups
 distr:  one band on NCORES_PER_BAND=   6 cores,    2 groups


--------------------------------------------------------------------------------------------------------


 INCAR:
 POTCAR:    PAW_PBE Ni_pv 06Sep2000               
 POTCAR:    PAW_PBE S 06Sep2000                   
 POTCAR:    PAW_PBE Ni_pv 06Sep2000               
   VRHFIN =Ni:                                                                  
   LEXCH  = PE                                                                  
   EATOM  =  3501.1230 eV,  257.3253 Ry                                         
                                                                                
   TITEL  = PAW_PBE Ni_pv 06Sep2000                                             
   LULTRA =        F    use ultrasoft PP ?                                      
   IUNSCR =        1    unscreen: 0-lin 1-nonlin 2-no                           
   RPACOR =    1.500    partial core radius                                     
   POMASS =   58.690; ZVAL   =   16.000    mass and valenz                      
   RCORE  =    2.000    outmost cutoff radius                                   
   RWIGS  =    2.000; RWIGS  =    1.058    wigner-seitz radius (au A)           
   ENMAX  =  367.986; ENMIN  =  275.989 eV                                      
   RCLOC  =    1.301    cutoff for local pot                                    
   LCOR   =        T    correct aug charges                                     
   LPAW   =        T    paw PP                                                  
   EAUG   =  703.443                                                            
   DEXC   =    0.000                                                            
   RMAX   =    2.041    core radius for proj-oper                               
   RAUG   =    1.300    factor for augmentation sphere                          
   RDEP   =    2.103    radius for radial grids                                 
   RDEPT  =    1.618    core radius for aug-charge                              
                                                                                
   Atomic configuration                                                         
    8 entries                                                                   
     n  l   j            E        occ.                                          
     1  0  0.50     -8206.4253   2.0000                                         
     2  0  0.50      -976.1748   2.0000                                         
     2  1  1.50      -839.0571   6.0000                                         
     3  0  0.50      -105.9991   2.0000                                         
     3  1  1.50       -66.4603   6.0000                                         
     3  2  2.50        -4.6458   9.0000                                         
     4  0  0.50        -4.4926   1.0000                                         
     4  3  2.50        -1.3606   0.0000                                         
   Description                                                                  
     l       E           TYP  RCUT    TYP  RCUT                                 
     1    -66.4602962     23  1.700                                             
     1     -1.3605826     23  1.700                                             
     2     -4.6457867     23  2.000                                             
     2     -6.0063693     23  2.000                                             
     0     -4.4925576     23  1.900                                             
     0     16.3626226     23  1.900                                             
  local pseudopotential read in
  partial core-charges read in
  partial kinetic energy density read in
  atomic valenz-charges read in
  non local Contribution for L=           1  read in
    real space projection operators read in
  non local Contribution for L=           1  read in
    real space projection operators read in
  non local Contribution for L=           2  read in
    real space projection operators read in
  non local Contribution for L=           2  read in
    real space projection operators read in
  non local Contribution for L=           0  read in
    real space projection operators read in
  non local Contribution for L=           0  read in
    real space projection operators read in
    PAW grid and wavefunctions read in
 
   number of l-projection  operators is LMAX  =           6
   number of lm-projection operators is LMMAX =          18
 
 POTCAR:    PAW_PBE S 06Sep2000                   
   VRHFIN =S : s2p4                                                             
   LEXCH  = PE                                                                  
   EATOM  =   276.8230 eV,   20.3459 Ry                                         
                                                                                
   TITEL  = PAW_PBE S 06Sep2000                                                 
   LULTRA =        F    use ultrasoft PP ?                                      
   IUNSCR =        1    unscreen: 0-lin 1-nonlin 2-no                           
   RPACOR =    1.500    partial core radius                                     
   POMASS =   32.066; ZVAL   =    6.000    mass and valenz                      
   RCORE  =    1.900    outmost cutoff radius                                   
   RWIGS  =    2.200; RWIGS  =    1.164    wigner-seitz radius (au A)           
   ENMAX  =  258.689; ENMIN  =  194.016 eV                                      
   ICORE  =        2    local potential                                         
   LCOR   =        T    correct aug charges                                     
   LPAW   =        T    paw PP                                                  
   EAUG   =  335.092                                                            
   DEXC   =    0.000                                                            
   RMAX   =    1.942    core radius for proj-oper                               
   RAUG   =    1.300    factor for augmentation sphere                          
   RDEP   =    1.954    radius for radial grids                                 
   RDEPT  =    1.744    core radius for aug-charge                              
                                                                                
   Atomic configuration                                                         
    6 entries                                                                   
     n  l   j            E        occ.                                          
     1  0  0.50     -2405.8406   2.0000                                         
     2  0  0.50      -211.7007   2.0000                                         
     2  1  1.50      -156.4958   6.0000                                         
     3  0  0.50       -17.2562   2.0000                                         
     3  1  0.50        -7.0085   4.0000                                         
     3  2  1.50        -6.8029   0.0000                                         
   Description                                                                  
     l       E           TYP  RCUT    TYP  RCUT                                 
     0    -17.2561641     23  1.900                                             
     0    -15.8743224     23  1.900                                             
     1     -7.0085400     23  1.900                                             
     1     -2.7779785     23  1.900                                             
     2     -6.8029130     23  1.900                                             
  local pseudopotential read in
  partial core-charges read in
  partial kinetic energy density read in
  atomic valenz-charges read in
  non local Contribution for L=           0  read in
    real space projection operators read in
  non local Contribution for L=           0  read in
    real space projection operators read in
  non local Contribution for L=           1  read in
    real space projection operators read in
  non local Contribution for L=           1  read in
    real space projection operators read in
    PAW grid and wavefunctions read in
 
   number of l-projection  operators is LMAX  =           4
   number of lm-projection operators is LMMAX =           8
 
 Optimization of the real space projectors (new method)

 maximal supplied QI-value         = 18.90
 optimisation between [QCUT,QGAM] = [ 10.77, 21.73] = [ 32.49,132.25] Ry 
 Optimized for a Real-space Cutoff    1.38 Angstroem

   l    n(q)    QCUT    max X(q) W(low)/X(q) W(high)/X(q)  e(spline) 
   1      8    10.771     2.836    0.40E-04    0.29E-04    0.12E-06
   1      8    10.771     4.023    0.10E-03    0.48E-04    0.29E-06
   2      8    10.771    73.368    0.42E-03    0.97E-04    0.44E-06
   2      8    10.771    69.010    0.42E-03    0.99E-04    0.45E-06
   0      9    10.771    54.797    0.10E-03    0.56E-04    0.74E-07
   0      9    10.771    24.266    0.89E-04    0.49E-04    0.67E-07
 Optimization of the real space projectors (new method)

 maximal supplied QI-value         = 19.84
 optimisation between [QCUT,QGAM] = [ 10.71, 21.63] = [ 32.15,130.99] Ry 
 Optimized for a Real-space Cutoff    1.19 Angstroem

   l    n(q)    QCUT    max X(q) W(low)/X(q) W(high)/X(q)  e(spline) 
   0      8    10.715   187.594    0.41E-03    0.53E-04    0.66E-07
   0      8    10.715   164.243    0.41E-03    0.53E-04    0.65E-07
   1      7    10.715    67.533    0.19E-03    0.59E-03    0.68E-07
   1      7    10.715    50.729    0.19E-03    0.58E-03    0.67E-07
  PAW_PBE Ni_pv 06Sep2000               :
 energy of atom  1       EATOM=-3501.1230
 kinetic energy error for atom=    0.0925 (will be added to EATOM!!)
  PAW_PBE S 06Sep2000                   :
 energy of atom  2       EATOM= -276.8230
 kinetic energy error for atom=    0.0033 (will be added to EATOM!!)
 
 
 POSCAR: Type_026 Type_126                       
  positions in cartesian coordinates
  No initial velocities read in
 exchange correlation table for  LEXCH =        8
   RHO(1)=    0.500       N(1)  =     2000
   RHO(2)=  100.500       N(2)  =     4000
 


--------------------------------------------------------------------------------------------------------


 ion  position               nearest neighbor table
   1  0.439  0.464  0.163-  43 2.04  34 2.25  29 2.25  35 2.36  44 2.36   5 2.53  22 2.53
   2  0.492  0.451  0.325-  45 2.02  35 2.04  44 2.05  23 2.50   6 2.50
   3  0.199  0.123  0.113-  32 2.04  27 2.07  36 2.12  34 2.18   9 2.38  28 2.41  24 2.43
   4  0.215  0.964  0.253-  38 2.12  33 2.13  28 2.25  37 2.26  32 2.26  12 2.43
   5  0.439  0.200  0.163-  39 2.09  34 2.10  32 2.25  35 2.36  40 2.36   1 2.53  22 2.53
   6  0.484  0.190  0.324-  45 2.06  40 2.06  33 2.09  35 2.11   2 2.50
   7  0.239  0.836  0.106-  32 2.05  36 2.05  37 2.09  29 2.11
   8  0.207  0.688  0.233-  38 2.04  29 2.06  30 2.10  37 2.11  26 2.43  12 2.53
   9  0.120  0.339  0.157-  30 2.09  34 2.15  27 2.15  28 2.19   3 2.38  18 2.43
  10  0.184  0.331  0.301-  31 2.05  28 2.09  30 2.11  35 2.15  15 2.54
  11  0.474  0.767  0.091-  50 2.05  29 2.10  51 2.11  20 2.46  12 2.52
  12  0.394  0.833  0.223-  32 2.14  29 2.17  33 2.26  51 2.35   4 2.43  13 2.44  11 2.52   8 2.53
                            38 2.62
  13  0.539  0.915  0.319-  52 2.01  33 2.03  17 2.34  12 2.44  51 2.60
  14  0.920  0.490  0.194-  41 2.07  49 2.07  48 2.15  30 2.29  42 2.39  15 2.47
  15  0.991  0.460  0.329-  31 2.04  30 2.10  49 2.12  42 2.13  14 2.47  10 2.54
  16  0.665  0.963  0.098-  51 2.06  50 2.08  39 2.09  46 2.14
  17  0.715  0.964  0.253-  52 2.05  40 2.25  51 2.26  46 2.26  13 2.34  25 2.53  21 2.53
  18  0.939  0.200  0.163-  27 2.03  48 2.14  46 2.25  49 2.36  28 2.36  24 2.41   9 2.43
  19  0.979  0.184  0.321-  31 2.05  28 2.06  49 2.09  47 2.12
  20  0.652  0.630  0.124-  43 2.06  50 2.12  41 2.14  51 2.25  44 2.37  21 2.41  11 2.46
  21  0.715  0.700  0.253-  52 2.06  44 2.25  51 2.26  41 2.26  42 2.33  20 2.41  25 2.53  17 2.53

  22  0.631  0.332  0.139-  43 2.08  39 2.09  48 2.13  40 2.36  44 2.36   5 2.53   1 2.53
  23  0.684  0.330  0.298-  45 2.05  40 2.07  44 2.09  49 2.13   2 2.50
  24  0.017  0.988  0.106-  36 2.05  37 2.13  46 2.17  27 2.24  18 2.41   3 2.43
  25  0.907  0.832  0.229-  47 2.10  42 2.12  37 2.25  41 2.26  46 2.26  26 2.33  17 2.53  21 2.53

  26  0.057  0.786  0.319-  38 2.04  47 2.08  42 2.17  25 2.33   8 2.43  37 2.47
  27  0.045  0.209  0.067-  18 2.03   3 2.07   9 2.15  24 2.24  36 2.70
  28  0.111  0.164  0.239-  19 2.06  10 2.09   9 2.19   4 2.25  18 2.36   3 2.41
  29  0.336  0.664  0.149-   8 2.06  11 2.10   7 2.11  12 2.17   1 2.25
  30  0.111  0.500  0.239-   9 2.09  15 2.10   8 2.10  10 2.11  14 2.29
  31  0.073  0.311  0.395-  15 2.04  10 2.05  19 2.05
  32  0.336  1.000  0.149-   3 2.04   7 2.05  12 2.14   5 2.25   4 2.26  33 2.79
  33  0.379  0.011  0.309-  13 2.03   6 2.09   4 2.13  12 2.26  38 2.63  32 2.79
  34  0.300  0.318  0.116-   5 2.10   9 2.15   3 2.18   1 2.25  35 2.74
  35  0.368  0.332  0.269-   2 2.04   6 2.11  10 2.15   1 2.36   5 2.36  34 2.74
  36  0.155  0.968  0.030-   7 2.05  24 2.05   3 2.12  27 2.70
  37  0.092  0.832  0.179-   7 2.09   8 2.11  24 2.13  25 2.25   4 2.26  26 2.47
  38  0.237  0.799  0.333-  26 2.04   8 2.04   4 2.12  12 2.62  33 2.63
  39  0.574  0.150  0.083-  22 2.09  16 2.09   5 2.09  40 2.71
  40  0.611  0.164  0.239-   6 2.06  23 2.07  17 2.25  22 2.36   5 2.36  39 2.71
  41  0.836  0.664  0.149-  14 2.07  20 2.14  25 2.26  21 2.26  42 2.71
  42  0.905  0.650  0.300-  25 2.12  15 2.13  26 2.17  21 2.33  14 2.39  41 2.71
  43  0.550  0.481  0.070-   1 2.04  20 2.06  22 2.08
  44  0.611  0.500  0.239-   2 2.05  23 2.09  21 2.25  22 2.36   1 2.36  20 2.37
  45  0.580  0.318  0.396-   2 2.02  23 2.05   6 2.06
  46  0.836  1.000  0.149-  16 2.14  24 2.17  18 2.25  25 2.26  17 2.26
  47  0.952  0.965  0.321-  26 2.08  25 2.10  19 2.12
  48  0.817  0.353  0.121-  22 2.13  18 2.14  14 2.15  49 2.61
  49  0.868  0.332  0.269-  14 2.07  19 2.09  15 2.12  23 2.13  18 2.36  48 2.61
  50  0.634  0.781  0.034-  11 2.05  16 2.08  20 2.12  51 2.58
  51  0.592  0.832  0.179-  16 2.06  11 2.11  20 2.25  17 2.26  21 2.26  12 2.35  50 2.58  13 2.60

  52  0.698  0.833  0.346-  13 2.01  17 2.05  21 2.06
 
  LATTYP: Found a simple orthorhombic cell.
 ALAT       =     9.5784100000
 B/A-ratio  =     1.1751911892
 C/A-ratio  =     1.7949213288
  
  Lattice vectors:
  
 A1 = (   0.0000000000,  -9.5784100000,   0.0000000000)
 A2 = ( -11.2564630382,   0.0000000000,   0.0000000000)
 A3 = (   0.0000000000,   0.0000000000, -17.1924924047)


Analysis of symmetry for initial positions (statically):
=====================================================================
 Subroutine PRICEL returns:
 Original cell was already a primitive cell.
 

 Routine SETGRP: Setting up the symmetry group for a 
 simple orthorhombic supercell.


 Subroutine GETGRP returns: Found  1 space group operations
 (whereof  1 operations were pure point group operations)
 out of a pool of  8 trial point group operations.


The static configuration has the point symmetry C_1 .


Analysis of symmetry for dynamics (positions and initial velocities):
=====================================================================
 Subroutine PRICEL returns:
 Original cell was already a primitive cell.
 

 Routine SETGRP: Setting up the symmetry group for a 
 simple orthorhombic supercell.


 Subroutine GETGRP returns: Found  1 space group operations
 (whereof  1 operations were pure point group operations)
 out of a pool of  8 trial point group operations.


The dynamic configuration has the point symmetry C_1 .


 Subroutine INISYM returns: Found  1 space group operations
 (whereof  1 operations are pure point group operations),
 and found     1 'primitive' translations

 
 
 KPOINTS: gamma-point-only calculation. no periodi

Automatic generation of k-mesh.
Space group operators:
 irot       det(A)        alpha          n_x          n_y          n_z        tau_x        tau_y        tau_z
    1     1.000000     0.000000     1.000000     0.000000     0.000000     0.000000     0.000000     0.000000
 
 Subroutine IBZKPT returns following result:
 ===========================================
 
 Found      1 irreducible k-points:
 
 Following reciprocal coordinates:
            Coordinates               Weight
  0.000000  0.000000  0.000000      1.000000
 
 Following cartesian coordinates:
            Coordinates               Weight
  0.000000  0.000000  0.000000      1.000000
 


--------------------------------------------------------------------------------------------------------




 Dimension of arrays:
   k-points           NKPTS =      1   k-points in BZ     NKDIM =      1   number of bands    NBANDS=    344
   number of dos      NEDOS =    301   number of ions     NIONS =     52
   non local maximal  LDIM  =      6   non local SUM 2l+1 LMDIM =     18
   total plane-waves  NPLWV = 270000
   max r-space proj   IRMAX =   1656   max aug-charges    IRDMAX=   4788
   dimension x,y,z NGX =    60 NGY =   50 NGZ =   90
   dimension x,y,z NGXF=   120 NGYF=  100 NGZF=  180
   support grid    NGXF=   120 NGYF=  100 NGZF=  180
   ions per type =              26  26
   NGX,Y,Z   is equivalent  to a cutoff of   8.86,  8.68,  8.70 a.u.
   NGXF,Y,Z  is equivalent  to a cutoff of  17.72, 17.36, 17.41 a.u.

 SYSTEM =  "Millerite NiS"                         
 POSCAR =  Type_026 Type_126                       

 Startparameter for this run:
   NWRITE =      2    write-flag & timer
   PREC   = normal    normal or accurate (medium, high low for compatibility)
   ISTART =      0    job   : 0-new  1-cont  2-samecut
   ICHARG =      2    charge: 1-file 2-atom 10-const
   ISPIN  =      1    spin polarized calculation?
   LNONCOLLINEAR =      F non collinear calculations
   LSORBIT =      F    spin-orbit coupling
   INIWAV =      1    electr: 0-lowe 1-rand  2-diag
   LASPH  =      F    aspherical Exc in radial PAW
   METAGGA=      F    non-selfconsistent MetaGGA calc.

 Electronic Relaxation 1
   ENCUT  =  450.0 eV  33.07 Ry    5.75 a.u.  19.47 16.57 29.74*2*pi/ulx,y,z
   ENINI  =  450.0     initial cutoff
   ENAUG  =  703.4 eV  augmentation charge cutoff
   NELM   =    100;   NELMIN=  2; NELMDL= -5     # of ELM steps 
   EDIFF  = 0.1E-03   stopping-criterion for ELM
   LREAL  =      T    real-space projection
   NLSPLINE    = F    spline interpolate recip. space projectors
   LCOMPAT=      F    compatible to vasp.4.4
   GGA_COMPAT  = T    GGA compatible to vasp.4.4-vasp.4.6
   LMAXPAW     = -100 max onsite density
   LMAXMIX     =    2 max onsite mixed and CHGCAR
   VOSKOWN=      0    Vosko Wilk Nusair interpolation
   ROPT   =   -0.00050  -0.00050
 Ionic relaxation
   EDIFFG = 0.1E-02   stopping-criterion for IOM
   NSW    =      0    number of steps for IOM
   NBLOCK =      1;   KBLOCK =      1    inner block; outer block 
   IBRION =     -1    ionic relax: 0-MD 1-quasi-New 2-CG
   NFREE  =      0    steps in history (QN), initial steepest desc. (CG)
   ISIF   =      2    stress and relaxation
   IWAVPR =     10    prediction:  0-non 1-charg 2-wave 3-comb
   ISYM   =      2    0-nonsym 1-usesym 2-fastsym
   LCORR  =      T    Harris-Foulkes like correction to forces

   POTIM  = 0.5000    time-step for ionic-motion
   TEIN   =    0.0    initial temperature
   TEBEG  =    0.0;   TEEND  =   0.0 temperature during run
   SMASS  =  -3.00    Nose mass-parameter (am)
   estimated Nose-frequenzy (Omega)   =  0.10E-29 period in steps =****** mass=  -0.290E-26a.u.
   SCALEE = 1.0000    scale energy and forces
   NPACO  =    256;   APACO  = 16.0  distance and # of slots for P.C.
   PSTRESS=    0.0 pullay stress

  Mass of Ions in am
   POMASS =  58.69 32.07
  Ionic Valenz
   ZVAL   =  16.00  6.00
  Atomic Wigner-Seitz radii
   RWIGS  =  -1.00 -1.00
  virtual crystal weights 
   VCA    =   1.00  1.00
   NELECT =     572.0000    total number of electrons
   NUPDOWN=      -1.0000    fix difference up-down

 DOS related values:
   EMIN   =  10.00;   EMAX   =-10.00  energy-range for DOS
   EFERMI =   0.00
   ISMEAR =     0;   SIGMA  =   0.20  broadening in eV -4-tet -1-fermi 0-gaus

 Electronic relaxation 2 (details)
   IALGO  =     38    algorithm
   LDIAG  =      T    sub-space diagonalisation (order eigenvalues)
   LSUBROT=      F    optimize rotation matrix (better conditioning)
   TURBO    =      0    0=normal 1=particle mesh
   IRESTART =      0    0=no restart 2=restart with 2 vectors
   NREBOOT  =      0    no. of reboots
   NMIN     =      0    reboot dimension
   EREF     =   0.00    reference energy to select bands
   IMIX   =      4    mixing-type and parameters
     AMIX     =   0.40;   BMIX     =  1.00
     AMIX_MAG =   1.60;   BMIX_MAG =  1.00
     AMIN     =   0.10
     WC   =   100.;   INIMIX=   1;  MIXPRE=   1;  MAXMIX= -45

 Intra band minimization:
   WEIMIN = 0.0000     energy-eigenvalue tresh-hold
   EBREAK =  0.73E-07  absolut break condition
   DEPER  =   0.30     relativ break condition  

   TIME   =   0.40     timestep for ELM

  volume/ion in A,a.u.               =      35.65       240.56
  Fermi-wavevector in a.u.,A,eV,Ry     =   1.106272  2.090552 16.651337  1.223839
  Thomas-Fermi vector in A             =   2.242771
 
 Write flags
   LWAVE        =      F    write WAVECAR
   LDOWNSAMPLE  =      F    k-point downsampling of WAVECAR
   LCHARG       =      F    write CHGCAR
   LVTOT        =      F    write LOCPOT, total local potential
   LVHAR        =      F    write LOCPOT, Hartree potential only
   LELF         =      F    write electronic localiz. function (ELF)
   LORBIT       =      0    0 simple, 1 ext, 2 COOP (PROOUT), +10 PAW based schemes


 Dipole corrections
   LMONO  =      F    monopole corrections only (constant potential shift)
   LDIPOL =      F    correct potential (dipole corrections)
   IDIPOL =      0    1-x, 2-y, 3-z, 4-all directions 
   EPSILON=  1.0000000 bulk dielectric constant

 Exchange correlation treatment:
   GGA     =    --    GGA type
   LEXCH   =     8    internal setting for exchange type
   VOSKOWN=      0    Vosko Wilk Nusair interpolation
   LHFCALC =     F    Hartree Fock is set to
   LHFONE  =     F    Hartree Fock one center treatment
   AEXX    =    0.0000 exact exchange contribution

 Linear response parameters
   LEPSILON=     F    determine dielectric tensor
   LRPA    =     F    only Hartree local field effects (RPA)
   LNABLA  =     F    use nabla operator in PAW spheres
   LVEL    =     F    velocity operator in full k-point grid
   LINTERFAST=   F  fast interpolation
   KINTER  =     0    interpolate to denser k-point grid
   CSHIFT  =0.1000    complex shift for real part using Kramers Kronig
   OMEGAMAX=  -1.0    maximum frequency
   DEG_THRESHOLD= 0.2000000E-02 threshold for treating states as degnerate
   RTIME   =   -0.100 relaxation time in fs
  (WPLASMAI=    0.000 imaginary part of plasma frequency in eV, 0.658/RTIME)
   DFIELD  = 0.0000000 0.0000000 0.0000000 field for delta impulse in time
 
 Orbital magnetization related:
   ORBITALMAG=     F  switch on orbital magnetization
   LCHIMAG   =     F  perturbation theory with respect to B field
   DQ        =  0.001000  dq finite difference perturbation B field
   LLRAUG    =     F  two centre corrections for induced B field



--------------------------------------------------------------------------------------------------------


 Static calculation
 charge density and potential will be updated during run
 non-spin polarized calculation
 Variant of blocked Davidson
 Davidson routine will perform the subspace rotation
 perform sub-space diagonalisation
    after iterative eigenvector-optimisation
 modified Broyden-mixing scheme, WC =      100.0
 initial mixing is a Kerker type mixing with AMIX =  0.4000 and BMIX =      1.0000
 Hartree-type preconditioning will be used
 using additional bands           58
 real space projection scheme for non local part
 use partial core corrections
 calculate Harris-corrections to forces 
   (improved forces if not selfconsistent)
 use gradient corrections 
 use of overlap-Matrix (Vanderbilt PP)
 Gauss-broadening in eV      SIGMA  =   0.20


--------------------------------------------------------------------------------------------------------


  energy-cutoff  :      450.00
  volume of cell :     1853.68
      direct lattice vectors                 reciprocal lattice vectors
    11.256463038  0.000000000  0.000000000     0.088837852  0.000000000  0.000000000
     0.000000000  9.578410000  0.000000000     0.000000000  0.104401461  0.000000000
     0.000000000  0.000000000 17.192492405     0.000000000  0.000000000  0.058164923

  length of vectors
    11.256463038  9.578410000 17.192492405     0.088837852  0.104401461  0.058164923


 
 k-points in units of 2pi/SCALE and weight: gamma-point-only calculation. no periodi
   0.00000000  0.00000000  0.00000000       1.000
 
 k-points in reciprocal lattice and weights: gamma-point-only calculation. no periodi
   0.00000000  0.00000000  0.00000000       1.000
 
 position of ions in fractional coordinates (direct lattice) 
   0.43933499  0.46388800  0.16283377
   0.49191027  0.45068346  0.32497173
   0.19909991  0.12328585  0.11274911
   0.21526096  0.96388800  0.25253989
   0.43933499  0.19968200  0.16283377
   0.48430757  0.18960470  0.32379183
   0.23903952  0.83599399  0.10571333
   0.20728741  0.68819946  0.23325592
   0.11990329  0.33906767  0.15732975
   0.18359048  0.33104186  0.30143807
   0.47394021  0.76738860  0.09118941
   0.39433765  0.83340859  0.22300521
   0.53861491  0.91491634  0.31884921
   0.92038958  0.48968163  0.19413271
   0.99095728  0.45956077  0.32928417
   0.66545400  0.96257939  0.09776380
   0.71526096  0.96388800  0.25253989
   0.93933499  0.19968200  0.16283377
   0.97945727  0.18404391  0.32139587
   0.65150472  0.63011612  0.12439312
   0.71526096  0.69968200  0.25253989
   0.63063970  0.33178500  0.13913288
   0.68447147  0.33037384  0.29842053
   0.01652983  0.98818766  0.10646431
   0.90656566  0.83178500  0.22883899
   0.05674559  0.78586806  0.31896091
   0.04527638  0.20915460  0.06747979
   0.11148904  0.16357000  0.23893853
   0.33556306  0.66357000  0.14923241
   0.11148904  0.50000000  0.23893853
   0.07292610  0.31089468  0.39530285
   0.33556306  1.00000000  0.14923241
   0.37911794  0.01129701  0.30882911
   0.29958772  0.31799997  0.11634895
   0.36788880  0.33178500  0.26911836
   0.15508843  0.96832948  0.02965575
   0.09196284  0.83178500  0.17941224
   0.23661044  0.79856272  0.33315878
   0.57363218  0.15047417  0.08327677
   0.61148904  0.16357000  0.23893853
   0.83556306  0.66357000  0.14923241
   0.90501978  0.65030286  0.29972597
   0.54996731  0.48133298  0.06950465
   0.61148904  0.50000000  0.23893853
   0.58008510  0.31832968  0.39599050
   0.83556306  1.00000000  0.14923241
   0.95205223  0.96509579  0.32103681
   0.81666004  0.35301551  0.12134163
   0.86788880  0.33178500  0.26911836
   0.63366964  0.78084387  0.03447861
   0.59196284  0.83178500  0.17941224
   0.69791314  0.83256339  0.34590248
 
 position of ions in cartesian coordinates  (Angst):
   4.94535808  4.44330943  2.79951837
   5.53716980  4.31683097  5.58707394
   2.24116079  1.18088242  1.93843817
   2.42307708  9.23251443  4.34179014
   4.94535808  1.91263604  2.79951837
   5.45159027  1.81611153  5.56678851
   2.69073947  8.00749315  1.81747567
   2.33332307  6.59185660  4.01025062
   1.34968699  3.24772915  2.70489048
   2.06657943  3.17085467  5.18247179
   5.33489042  7.35036264  1.56777325
   4.43884717  7.98272918  3.83401539
   6.06289885  8.76344378  5.48181255
  10.36033127  4.69037138  3.33762519
  11.15467404  4.40186149  5.66121559
   7.49065837  9.21998003  1.68080343
   8.05130860  9.23251443  4.34179014
  10.57358960  1.91263604  2.79951837
  11.02522456  1.76284798  5.52559607
   7.33363877  6.03551055  2.13862771
   8.05130860  6.70184104  4.34179014
   7.09877251  3.17797273  2.39204091
   7.70472775  3.16445610  5.13059275
   0.18606740  9.46526656  1.83038676
  10.20472287  7.96717773  3.93431268
   0.63875468  7.52736651  5.48373296
   0.50965194  2.00336852  1.16014576
   1.25497224  1.56674049  4.10794885
   3.77725322  6.35594549  2.56567706
   1.25497224  4.78920497  4.10794885
   0.82088993  2.97787670  6.79624129
   3.77725322  9.57840997  2.56567706
   4.26752710  0.10820739  5.30954209
   3.37229812  3.04593412  2.00032845
   4.14112671  3.17797273  4.62681534
   1.74574713  9.27505677  0.50985629
   1.03517635  7.96717773  3.08454356
   2.66339672  7.64896116  5.72782972
   6.45706942  1.44130327  1.43173522
   6.88320375  1.56674049  4.10794885
   9.40548473  6.35594549  2.56567706
  10.18732171  6.22886740  5.15303654
   6.19068674  4.61040462  1.19495809
   6.88320375  4.78920497  4.10794885
   6.52970646  3.04909217  6.80806374
   9.40548473  9.57840997  2.56567706
  10.71674073  9.24408315  5.51942297
   9.19270359  3.38132728  2.08616509
   9.76935823  3.17797273  4.62681534
   7.13287883  7.47924269  0.59277325
   6.66340787  7.96717773  3.08454356
   7.85603346  7.97463346  5.94692576
 


--------------------------------------------------------------------------------------------------------


 use parallel FFT for orbitals z direction half grid
 k-point  1 :   0.0000 0.0000 0.0000  plane waves:   20117

 maximum and minimum number of plane-waves per node :      3359     3348

 maximum number of plane-waves:     20117
 maximum index in each direction: 
   IXMAX=   19   IYMAX=   16   IZMAX=   29
   IXMIN=  -19   IYMIN=  -16   IZMIN=    0


 real space projection operators:
  total allocation   :       7329.83 KBytes
  max/ min on nodes  :       1225.59       1217.64


 parallel 3D FFT for wavefunctions:
    minimum data exchange during FFTs selected (reduces bandwidth)
 parallel 3D FFT for charge:
    minimum data exchange during FFTs selected (reduces bandwidth)


 total amount of memory used by VASP MPI-rank0    60031. kBytes
=======================================================================

   base      :      30000. kBytes
   nonlr-proj:       1496. kBytes
   fftplans  :       7078. kBytes
   grid      :      11974. kBytes
   one-center:         69. kBytes
   wavefun   :       9414. kBytes
 
     INWAV:  cpu time    0.0000: real time    0.0000
 Broyden mixing: mesh for mixing (old mesh)
   NGX = 39   NGY = 33   NGZ = 59
  (NGX  =120   NGY  =100   NGZ  =180)
  gives a total of  75933 points

 initial charge density was supplied:
 charge density of overlapping atoms calculated
 number of electron     572.0000000 magnetization 
 keeping initial charge density in first step


--------------------------------------------------------------------------------------------------------


 Maximum index for non-local projection operator          267
 Maximum index for augmentation-charges          428 (set IRDMAX)


--------------------------------------------------------------------------------------------------------


 First call to EWALD:  gamma=   0.144
 Maximum number of real-space cells 3x 3x 2
 Maximum number of reciprocal cells 3x 2x 4

    FEWALD:  cpu time    0.0048: real time    0.0048


--------------------------------------- Iteration      1(   1)  ---------------------------------------


    POTLOK:  cpu time    0.2144: real time    0.2144
    SETDIJ:  cpu time    0.0147: real time    0.0147
     EDDAV:  cpu time    4.1125: real time    4.1142
       DOS:  cpu time    0.0008: real time    0.0008
    --------------------------------------------
      LOOP:  cpu time    4.3425: real time    4.3442

 eigenvalue-minimisations  :   848
 total energy-change (2. order) : 0.6481683E+04  (-0.3666157E+05)
 number of electron     572.0000000 magnetization 
 augmentation part      572.0000000 magnetization 

 Free energy of the ion-electron system (eV)
  ---------------------------------------------------
  alpha Z        PSCENC =      1046.73971423
  Ewald energy   TEWEN  =    129972.53697314
  -Hartree energ DENC   =   -216899.42136908
  -exchange      EXHF   =         0.00000000
  -V(xc)+E(xc)   XCENC  =      2661.87396974
  PAW double counting   =     81415.77407466   -84963.31414086
  entropy T*S    EENTRO =        -0.29571718
  eigenvalues    EBANDS =     -4976.31444271
  atomic energy  EATOM  =     98224.10364994
  Solvation  Ediel_sol  =         0.00000000
  ---------------------------------------------------
  free energy    TOTEN  =      6481.68271189 eV

  energy without entropy =     6481.97842907  energy(sigma->0) =     6481.83057048


--------------------------------------------------------------------------------------------------------




--------------------------------------- Iteration      1(   2)  ---------------------------------------


     EDDAV:  cpu time    3.7055: real time    3.7069
       DOS:  cpu time    0.0008: real time    0.0008
    --------------------------------------------
      LOOP:  cpu time    3.7063: real time    3.7078

 eigenvalue-minimisations  :   736
 total energy-change (2. order) :-0.6129078E+04  (-0.5915472E+04)
 number of electron     572.0000000 magnetization 
 augmentation part      572.0000000 magnetization 

 Free energy of the ion-electron system (eV)
  ---------------------------------------------------
  alpha Z        PSCENC =      1046.73971423
  Ewald energy   TEWEN  =    129972.53697314
  -Hartree energ DENC   =   -216899.42136908
  -exchange      EXHF   =         0.00000000
  -V(xc)+E(xc)   XCENC  =      2661.87396974
  PAW double counting   =     81415.77407466   -84963.31414086
  entropy T*S    EENTRO =        -0.47088268
  eigenvalues    EBANDS =    -11105.21695090
  atomic energy  EATOM  =     98224.10364994
  Solvation  Ediel_sol  =         0.00000000
  ---------------------------------------------------
  free energy    TOTEN  =       352.60503819 eV

  energy without entropy =      353.07592087  energy(sigma->0) =      352.84047953


--------------------------------------------------------------------------------------------------------




--------------------------------------- Iteration      1(   3)  ---------------------------------------


     EDDAV:  cpu time    3.6730: real time    3.6740
       DOS:  cpu time    0.0008: real time    0.0008
    --------------------------------------------
      LOOP:  cpu time    3.6738: real time    3.6749

 eigenvalue-minimisations  :   792
 total energy-change (2. order) :-0.6042335E+03  (-0.5815696E+03)
 number of electron     572.0000000 magnetization 
 augmentation part      572.0000000 magnetization 

 Free energy of the ion-electron system (eV)
  ---------------------------------------------------
  alpha Z        PSCENC =      1046.73971423
  Ewald energy   TEWEN  =    129972.53697314
  -Hartree energ DENC   =   -216899.42136908
  -exchange      EXHF   =         0.00000000
  -V(xc)+E(xc)   XCENC  =      2661.87396974
  PAW double counting   =     81415.77407466   -84963.31414086
  entropy T*S    EENTRO =        -0.83281194
  eigenvalues    EBANDS =    -11709.08855290
  atomic energy  EATOM  =     98224.10364994
  Solvation  Ediel_sol  =         0.00000000
  ---------------------------------------------------
  free energy    TOTEN  =      -251.62849307 eV

  energy without entropy =     -250.79568113  energy(sigma->0) =     -251.21208710


--------------------------------------------------------------------------------------------------------




--------------------------------------- Iteration      1(   4)  ---------------------------------------


     EDDAV:  cpu time    3.8756: real time    3.8762
       DOS:  cpu time    0.0009: real time    0.0009
    --------------------------------------------
      LOOP:  cpu time    3.8766: real time    3.8772

 eigenvalue-minimisations  :   784
 total energy-change (2. order) :-0.3041261E+02  (-0.3012339E+02)
 number of electron     572.0000000 magnetization 
 augmentation part      572.0000000 magnetization 

 Free energy of the ion-electron system (eV)
  ---------------------------------------------------
  alpha Z        PSCENC =      1046.73971423
  Ewald energy   TEWEN  =    129972.53697314
  -Hartree energ DENC   =   -216899.42136908
  -exchange      EXHF   =         0.00000000
  -V(xc)+E(xc)   XCENC  =      2661.87396974
  PAW double counting   =     81415.77407466   -84963.31414086
  entropy T*S    EENTRO =        -0.84400009
  eigenvalues    EBANDS =    -11739.48997786
  atomic energy  EATOM  =     98224.10364994
  Solvation  Ediel_sol  =         0.00000000
  ---------------------------------------------------
  free energy    TOTEN  =      -282.04110617 eV

  energy without entropy =     -281.19710608  energy(sigma->0) =     -281.61910612


--------------------------------------------------------------------------------------------------------




--------------------------------------- Iteration      1(   5)  ---------------------------------------


     EDDAV:  cpu time    4.2856: real time    4.2867
       DOS:  cpu time    0.0008: real time    0.0008
    CHARGE:  cpu time    0.1385: real time    0.1385
    MIXING:  cpu time    0.0075: real time    0.0075
    --------------------------------------------
      LOOP:  cpu time    4.4325: real time    4.4336

 eigenvalue-minimisations  :   896
 total energy-change (2. order) :-0.1267401E+01  (-0.1265984E+01)
 number of electron     572.0000372 magnetization 
 augmentation part      207.1534883 magnetization 

 Broyden mixing:
  rms(total) = 0.86070E+01    rms(broyden)= 0.86010E+01
  rms(prec ) = 0.89951E+01
  weight for this iteration     100.00

 Free energy of the ion-electron system (eV)
  ---------------------------------------------------
  alpha Z        PSCENC =      1046.73971423
  Ewald energy   TEWEN  =    129972.53697314
  -Hartree energ DENC   =   -216899.42136908
  -exchange      EXHF   =         0.00000000
  -V(xc)+E(xc)   XCENC  =      2661.87396974
  PAW double counting   =     81415.77407466   -84963.31414086
  entropy T*S    EENTRO =        -0.84274133
  eigenvalues    EBANDS =    -11740.75863803
  atomic energy  EATOM  =     98224.10364994
  Solvation  Ediel_sol  =         0.00000000
  ---------------------------------------------------
  free energy    TOTEN  =      -283.30850759 eV

  energy without entropy =     -282.46576625  energy(sigma->0) =     -282.88713692


--------------------------------------------------------------------------------------------------------




--------------------------------------- Iteration      1(   6)  ---------------------------------------


    POTLOK:  cpu time    0.2043: real time    0.2043
    SETDIJ:  cpu time    0.0158: real time    0.0158
     EDDAV:  cpu time    4.1423: real time    4.1430
       DOS:  cpu time    0.0009: real time    0.0009
    CHARGE:  cpu time    0.1382: real time    0.1382
    MIXING:  cpu time    0.0080: real time    0.0080
    --------------------------------------------
      LOOP:  cpu time    4.5096: real time    4.5103

 eigenvalue-minimisations  :   864
 total energy-change (2. order) :-0.4158823E+02  (-0.6843140E+02)
 number of electron     572.0000503 magnetization 
 augmentation part      248.1721972 magnetization 

 Broyden mixing:
  rms(total) = 0.13342E+02    rms(broyden)= 0.13340E+02
  rms(prec ) = 0.13992E+02
  weight for this iteration     100.00

 eigenvalues of (default mixing * dielectric matrix)
  average eigenvalue GAMMA=   0.2462
  0.2462

 Free energy of the ion-electron system (eV)
  ---------------------------------------------------
  alpha Z        PSCENC =      1046.73971423
  Ewald energy   TEWEN  =    129972.53697314
  -Hartree energ DENC   =   -215018.45559105
  -exchange      EXHF   =         0.00000000
  -V(xc)+E(xc)   XCENC  =      2609.82313675
  PAW double counting   =     85544.34929131   -88928.92561867
  entropy T*S    EENTRO =        -0.63475264
  eigenvalues    EBANDS =    -13774.43353717
  atomic energy  EATOM  =     98224.10364994
  Solvation  Ediel_sol  =         0.00000000
  ---------------------------------------------------
  free energy    TOTEN  =      -324.89673417 eV

  energy without entropy =     -324.26198153  energy(sigma->0) =     -324.57935785


--------------------------------------------------------------------------------------------------------




--------------------------------------- Iteration      1(   7)  ---------------------------------------


    POTLOK:  cpu time    0.2024: real time    0.2024
    SETDIJ:  cpu time    0.0160: real time    0.0160
     EDDAV:  cpu time    4.0219: real time    4.0225
       DOS:  cpu time    0.0009: real time    0.0009
    CHARGE:  cpu time    0.1332: real time    0.1332
    MIXING:  cpu time    0.0076: real time    0.0076
    --------------------------------------------
      LOOP:  cpu time    4.3820: real time    4.3826

 eigenvalue-minimisations  :   792
 total energy-change (2. order) : 0.5984287E+02  (-0.2072728E+02)
 number of electron     572.0000419 magnetization 
 augmentation part      238.5167842 magnetization 

 Broyden mixing:
  rms(total) = 0.64163E+01    rms(broyden)= 0.64155E+01
  rms(prec ) = 0.67114E+01
  weight for this iteration     100.00

 eigenvalues of (default mixing * dielectric matrix)
  average eigenvalue GAMMA=   0.4784
  0.4784  0.4784

 Free energy of the ion-electron system (eV)
  ---------------------------------------------------
  alpha Z        PSCENC =      1046.73971423
  Ewald energy   TEWEN  =    129972.53697314
  -Hartree energ DENC   =   -215728.31502678
  -exchange      EXHF   =         0.00000000
  -V(xc)+E(xc)   XCENC  =      2627.79420709
  PAW double counting   =     88899.55574790   -92384.18975076
  entropy T*S    EENTRO =        -0.57808620
  eigenvalues    EBANDS =    -12922.70129223
  atomic energy  EATOM  =     98224.10364994
  Solvation  Ediel_sol  =         0.00000000
  ---------------------------------------------------
  free energy    TOTEN  =      -265.05386367 eV

  energy without entropy =     -264.47577747  energy(sigma->0) =     -264.76482057


--------------------------------------------------------------------------------------------------------




--------------------------------------- Iteration      1(   8)  ---------------------------------------


    POTLOK:  cpu time    0.1978: real time    0.1983
    SETDIJ:  cpu time    0.0156: real time    0.0156
     EDDAV:  cpu time    4.0946: real time    4.0954
       DOS:  cpu time    0.0010: real time    0.0010
    CHARGE:  cpu time    0.1409: real time    0.1409
    MIXING:  cpu time    0.0077: real time    0.0077
    --------------------------------------------
      LOOP:  cpu time    4.4577: real time    4.4590

 eigenvalue-minimisations  :   904
 total energy-change (2. order) :-0.3141326E+02  (-0.1666616E+02)
 number of electron     572.0000510 magnetization 
 augmentation part      222.9144438 magnetization 

 Broyden mixing:
  rms(total) = 0.83269E+01    rms(broyden)= 0.83261E+01
  rms(prec ) = 0.97389E+01
  weight for this iteration     100.00

 eigenvalues of (default mixing * dielectric matrix)
  average eigenvalue GAMMA=   0.5594
  0.9999  0.4266  0.2516

 Free energy of the ion-electron system (eV)
  ---------------------------------------------------
  alpha Z        PSCENC =      1046.73971423
  Ewald energy   TEWEN  =    129972.53697314
  -Hartree energ DENC   =   -216385.35146271
  -exchange      EXHF   =         0.00000000
  -V(xc)+E(xc)   XCENC  =      2644.60194336
  PAW double counting   =     93905.73831315   -97483.45676656
  entropy T*S    EENTRO =        -0.70886209
  eigenvalues    EBANDS =    -12220.67062223
  atomic energy  EATOM  =     98224.10364994
  Solvation  Ediel_sol  =         0.00000000
  ---------------------------------------------------
  free energy    TOTEN  =      -296.46711979 eV

  energy without entropy =     -295.75825769  energy(sigma->0) =     -296.11268874


--------------------------------------------------------------------------------------------------------




--------------------------------------- Iteration      1(   9)  ---------------------------------------


    POTLOK:  cpu time    0.1981: real time    0.1980
    SETDIJ:  cpu time    0.0156: real time    0.0156
     EDDAV:  cpu time    4.6061: real time    4.6068
       DOS:  cpu time    0.0009: real time    0.0008
    CHARGE:  cpu time    0.1414: real time    0.1414
    MIXING:  cpu time    0.0082: real time    0.0082
    --------------------------------------------
      LOOP:  cpu time    4.9701: real time    4.9709

 eigenvalue-minimisations  :  1000
 total energy-change (2. order) : 0.3110768E+02  (-0.7118328E+01)
 number of electron     572.0000373 magnetization 
 augmentation part      220.2953002 magnetization 

 Broyden mixing:
  rms(total) = 0.45522E+01    rms(broyden)= 0.45500E+01
  rms(prec ) = 0.51544E+01
  weight for this iteration     100.00

 eigenvalues of (default mixing * dielectric matrix)
  average eigenvalue GAMMA=   0.7403
  1.8893  0.4406  0.4406  0.1908

 Free energy of the ion-electron system (eV)
  ---------------------------------------------------
  alpha Z        PSCENC =      1046.73971423
  Ewald energy   TEWEN  =    129972.53697314
  -Hartree energ DENC   =   -216411.62505804
  -exchange      EXHF   =         0.00000000
  -V(xc)+E(xc)   XCENC  =      2644.88067526
  PAW double counting   =     98033.01939384  -101633.33403014
  entropy T*S    EENTRO =        -0.79433792
  eigenvalues    EBANDS =    -12140.88642161
  atomic energy  EATOM  =     98224.10364994
  Solvation  Ediel_sol  =         0.00000000
  ---------------------------------------------------
  free energy    TOTEN  =      -265.35944130 eV

  energy without entropy =     -264.56510338  energy(sigma->0) =     -264.96227234


--------------------------------------------------------------------------------------------------------




--------------------------------------- Iteration      1(  10)  ---------------------------------------


    POTLOK:  cpu time    0.1991: real time    0.1991
    SETDIJ:  cpu time    0.0158: real time    0.0158
     EDDAV:  cpu time    4.2781: real time    4.2790
       DOS:  cpu time    0.0009: real time    0.0009
    CHARGE:  cpu time    0.1384: real time    0.1384
    MIXING:  cpu time    0.0087: real time    0.0087
    --------------------------------------------
      LOOP:  cpu time    4.6410: real time    4.6419

 eigenvalue-minimisations  :   896
 total energy-change (2. order) :-0.2267800E+02  (-0.8647977E+01)
 number of electron     572.0000355 magnetization 
 augmentation part      220.2671055 magnetization 

 Broyden mixing:
  rms(total) = 0.86786E+01    rms(broyden)= 0.86766E+01
  rms(prec ) = 0.10063E+02
  weight for this iteration     100.00

 eigenvalues of (default mixing * dielectric matrix)
  average eigenvalue GAMMA=   0.7369
  2.4189  0.4668  0.4668  0.1932  0.1385

 Free energy of the ion-electron system (eV)
  ---------------------------------------------------
  alpha Z        PSCENC =      1046.73971423
  Ewald energy   TEWEN  =    129972.53697314
  -Hartree energ DENC   =   -216290.53255649
  -exchange      EXHF   =         0.00000000
  -V(xc)+E(xc)   XCENC  =      2640.59983696
  PAW double counting   =    102781.39935123  -106395.88827513
  entropy T*S    EENTRO =        -0.81266216
  eigenvalues    EBANDS =    -12266.18346934
  atomic energy  EATOM  =     98224.10364994
  Solvation  Ediel_sol  =         0.00000000
  ---------------------------------------------------
  free energy    TOTEN  =      -288.03743763 eV

  energy without entropy =     -287.22477547  energy(sigma->0) =     -287.63110655


--------------------------------------------------------------------------------------------------------




--------------------------------------- Iteration      1(  11)  ---------------------------------------


    POTLOK:  cpu time    0.1997: real time    0.1997
    SETDIJ:  cpu time    0.0165: real time    0.0165
     EDDAV:  cpu time    4.4538: real time    4.4544
       DOS:  cpu time    0.0010: real time    0.0010
    CHARGE:  cpu time    0.1434: real time    0.1434
    MIXING:  cpu time    0.0092: real time    0.0092
    --------------------------------------------
      LOOP:  cpu time    4.8235: real time    4.8241

 eigenvalue-minimisations  :   944
 total energy-change (2. order) : 0.2232727E+02  (-0.4259537E+01)
 number of electron     572.0000405 magnetization 
 augmentation part      226.0360965 magnetization 

 Broyden mixing:
  rms(total) = 0.39018E+01    rms(broyden)= 0.38995E+01
  rms(prec ) = 0.45646E+01
  weight for this iteration     100.00

 eigenvalues of (default mixing * dielectric matrix)
  average eigenvalue GAMMA=   0.6500
  2.4348  0.4665  0.4665  0.2041  0.2041  0.1240

 Free energy of the ion-electron system (eV)
  ---------------------------------------------------
  alpha Z        PSCENC =      1046.73971423
  Ewald energy   TEWEN  =    129972.53697314
  -Hartree energ DENC   =   -216166.51783000
  -exchange      EXHF   =         0.00000000
  -V(xc)+E(xc)   XCENC  =      2638.04824510
  PAW double counting   =    105658.86312748  -109283.93694776
  entropy T*S    EENTRO =        -0.64353049
  eigenvalues    EBANDS =    -12354.90356556
  atomic energy  EATOM  =     98224.10364994
  Solvation  Ediel_sol  =         0.00000000
  ---------------------------------------------------
  free energy    TOTEN  =      -265.71016392 eV

  energy without entropy =     -265.06663343  energy(sigma->0) =     -265.38839868


--------------------------------------------------------------------------------------------------------




--------------------------------------- Iteration      1(  12)  ---------------------------------------


    POTLOK:  cpu time    0.2035: real time    0.2039
    SETDIJ:  cpu time    0.0162: real time    0.0162
     EDDAV:  cpu time    4.3750: real time    4.3759
       DOS:  cpu time    0.0009: real time    0.0009
    CHARGE:  cpu time    0.1434: real time    0.1434
    MIXING:  cpu time    0.0090: real time    0.0090
    --------------------------------------------
      LOOP:  cpu time    4.7481: real time    4.7494

 eigenvalue-minimisations  :   928
 total energy-change (2. order) : 0.8541559E+01  (-0.1504707E+01)
 number of electron     572.0000392 magnetization 
 augmentation part      226.8666455 magnetization 

 Broyden mixing:
  rms(total) = 0.22829E+01    rms(broyden)= 0.22812E+01
  rms(prec ) = 0.27077E+01
  weight for this iteration     100.00

 eigenvalues of (default mixing * dielectric matrix)
  average eigenvalue GAMMA=   0.6016
  2.2928  0.4453  0.4453  0.4622  0.2556  0.1741  0.1362

 Free energy of the ion-electron system (eV)
  ---------------------------------------------------
  alpha Z        PSCENC =      1046.73971423
  Ewald energy   TEWEN  =    129972.53697314
  -Hartree energ DENC   =   -216185.49819120
  -exchange      EXHF   =         0.00000000
  -V(xc)+E(xc)   XCENC  =      2638.49688354
  PAW double counting   =    105727.62828853  -109355.40478835
  entropy T*S    EENTRO =        -0.72269140
  eigenvalues    EBANDS =    -12325.04844341
  atomic energy  EATOM  =     98224.10364994
  Solvation  Ediel_sol  =         0.00000000
  ---------------------------------------------------
  free energy    TOTEN  =      -257.16860499 eV

  energy without entropy =     -256.44591359  energy(sigma->0) =     -256.80725929


--------------------------------------------------------------------------------------------------------




--------------------------------------- Iteration      1(  13)  ---------------------------------------


    POTLOK:  cpu time    0.2017: real time    0.2019
    SETDIJ:  cpu time    0.0159: real time    0.0159
     EDDAV:  cpu time    4.3956: real time    4.4693
       DOS:  cpu time    0.0010: real time    0.0009
    CHARGE:  cpu time    0.1442: real time    0.1442
    MIXING:  cpu time    0.0094: real time    0.0094
    --------------------------------------------
      LOOP:  cpu time    4.7677: real time    4.8416

 eigenvalue-minimisations  :   936
 total energy-change (2. order) : 0.1632751E+01  (-0.1257324E+01)
 number of electron     572.0000410 magnetization 
 augmentation part      225.7842467 magnetization 

 Broyden mixing:
  rms(total) = 0.25281E+01    rms(broyden)= 0.25272E+01
  rms(prec ) = 0.29962E+01
  weight for this iteration     100.00

 eigenvalues of (default mixing * dielectric matrix)
  average eigenvalue GAMMA=   0.5484
  2.2371  0.4659  0.4659  0.4361  0.3280  0.1760  0.1463  0.1320

 Free energy of the ion-electron system (eV)
  ---------------------------------------------------
  alpha Z        PSCENC =      1046.73971423
  Ewald energy   TEWEN  =    129972.53697314
  -Hartree energ DENC   =   -216246.00655275
  -exchange      EXHF   =         0.00000000
  -V(xc)+E(xc)   XCENC  =      2639.70092324
  PAW double counting   =    105020.97300512  -108647.86785451
  entropy T*S    EENTRO =        -0.68659917
  eigenvalues    EBANDS =    -12265.02911299
  atomic energy  EATOM  =     98224.10364994
  Solvation  Ediel_sol  =         0.00000000
  ---------------------------------------------------
  free energy    TOTEN  =      -255.53585376 eV

  energy without entropy =     -254.84925459  energy(sigma->0) =     -255.19255418


--------------------------------------------------------------------------------------------------------




--------------------------------------- Iteration      1(  14)  ---------------------------------------


    POTLOK:  cpu time    0.2030: real time    0.2030
    SETDIJ:  cpu time    0.0160: real time    0.0160
     EDDAV:  cpu time    4.3608: real time    4.3614
       DOS:  cpu time    0.0009: real time    0.0009
    CHARGE:  cpu time    0.1358: real time    0.1359
    MIXING:  cpu time    0.0099: real time    0.0099
    --------------------------------------------
      LOOP:  cpu time    4.7265: real time    4.7271

 eigenvalue-minimisations  :   928
 total energy-change (2. order) : 0.3288037E+01  (-0.4958993E+00)
 number of electron     572.0000400 magnetization 
 augmentation part      225.5819221 magnetization 

 Broyden mixing:
  rms(total) = 0.16716E+01    rms(broyden)= 0.16711E+01
  rms(prec ) = 0.19590E+01
  weight for this iteration     100.00

 eigenvalues of (default mixing * dielectric matrix)
  average eigenvalue GAMMA=   0.5086
  2.2301  0.4545  0.4545  0.4174  0.4174  0.1749  0.1478  0.1478  0.1333

 Free energy of the ion-electron system (eV)
  ---------------------------------------------------
  alpha Z        PSCENC =      1046.73971423
  Ewald energy   TEWEN  =    129972.53697314
  -Hartree energ DENC   =   -216271.33107636
  -exchange      EXHF   =         0.00000000
  -V(xc)+E(xc)   XCENC  =      2640.24685816
  PAW double counting   =    104699.28923190  -108325.78497051
  entropy T*S    EENTRO =        -0.71967845
  eigenvalues    EBANDS =    -12237.32851890
  atomic energy  EATOM  =     98224.10364994
  Solvation  Ediel_sol  =         0.00000000
  ---------------------------------------------------
  free energy    TOTEN  =      -252.24781686 eV

  energy without entropy =     -251.52813841  energy(sigma->0) =     -251.88797763


--------------------------------------------------------------------------------------------------------




--------------------------------------- Iteration      1(  15)  ---------------------------------------


    POTLOK:  cpu time    0.2041: real time    0.2043
    SETDIJ:  cpu time    0.0163: real time    0.0163
     EDDAV:  cpu time    4.0371: real time    4.0375
       DOS:  cpu time    0.0009: real time    0.0009
    CHARGE:  cpu time    0.3296: real time    0.3297
    MIXING:  cpu time    0.0201: real time    0.0201
    --------------------------------------------
      LOOP:  cpu time    4.6081: real time    4.6087

 eigenvalue-minimisations  :   888
 total energy-change (2. order) : 0.3243457E+00  (-0.1030525E+00)
 number of electron     572.0000403 magnetization 
 augmentation part      225.3594982 magnetization 

 Broyden mixing:
  rms(total) = 0.16023E+01    rms(broyden)= 0.16023E+01
  rms(prec ) = 0.18696E+01
  weight for this iteration     100.00

 eigenvalues of (default mixing * dielectric matrix)
  average eigenvalue GAMMA=   0.4614
  2.2276  0.4481  0.4481  0.4169  0.4169  0.1746  0.1350  0.1342  0.1342  0.0782

 Free energy of the ion-electron system (eV)
  ---------------------------------------------------
  alpha Z        PSCENC =      1046.73971423
  Ewald energy   TEWEN  =    129972.53697314
  -Hartree energ DENC   =   -216277.38651763
  -exchange      EXHF   =         0.00000000
  -V(xc)+E(xc)   XCENC  =      2640.35201014
  PAW double counting   =    104629.43571594  -108255.47439456
  entropy T*S    EENTRO =        -0.71941954
  eigenvalues    EBANDS =    -12231.51120282
  atomic energy  EATOM  =     98224.10364994
  Solvation  Ediel_sol  =         0.00000000
  ---------------------------------------------------
  free energy    TOTEN  =      -251.92347116 eV

  energy without entropy =     -251.20405162  energy(sigma->0) =     -251.56376139


--------------------------------------------------------------------------------------------------------




--------------------------------------- Iteration      1(  16)  ---------------------------------------


    POTLOK:  cpu time    0.2119: real time    0.2119
    SETDIJ:  cpu time    0.0154: real time    0.0154
     EDDAV:  cpu time    3.4404: real time    3.4407
       DOS:  cpu time    0.0011: real time    0.0011
    CHARGE:  cpu time    0.1408: real time    0.1409
    MIXING:  cpu time    0.0101: real time    0.0101
    --------------------------------------------
      LOOP:  cpu time    3.8197: real time    3.8202

 eigenvalue-minimisations  :   736
 total energy-change (2. order) : 0.8501922E-01  (-0.9886339E-02)
 number of electron     572.0000403 magnetization 
 augmentation part      225.3207153 magnetization 

 Broyden mixing:
  rms(total) = 0.15830E+01    rms(broyden)= 0.15830E+01
  rms(prec ) = 0.18504E+01
  weight for this iteration     100.00

 eigenvalues of (default mixing * dielectric matrix)
  average eigenvalue GAMMA=   0.4741
  2.2255  0.3778  0.3778  0.4591  0.4591  0.3954  0.3177  0.1707  0.1334  0.1491
  0.1491

 Free energy of the ion-electron system (eV)
  ---------------------------------------------------
  alpha Z        PSCENC =      1046.73971423
  Ewald energy   TEWEN  =    129972.53697314
  -Hartree energ DENC   =   -216278.79521336
  -exchange      EXHF   =         0.00000000
  -V(xc)+E(xc)   XCENC  =      2640.38062781
  PAW double counting   =    104599.03637078  -108224.90397198
  entropy T*S    EENTRO =        -0.72133101
  eigenvalues    EBANDS =    -12230.21527149
  atomic energy  EATOM  =     98224.10364994
  Solvation  Ediel_sol  =         0.00000000
  ---------------------------------------------------
  free energy    TOTEN  =      -251.83845195 eV

  energy without entropy =     -251.11712094  energy(sigma->0) =     -251.47778644


--------------------------------------------------------------------------------------------------------




--------------------------------------- Iteration      1(  17)  ---------------------------------------


    POTLOK:  cpu time    0.2020: real time    0.2020
    SETDIJ:  cpu time    0.0153: real time    0.0153
     EDDAV:  cpu time    4.7704: real time    4.7715
       DOS:  cpu time    0.0011: real time    0.0011
    CHARGE:  cpu time    0.1497: real time    0.1497
    MIXING:  cpu time    0.0116: real time    0.0116
    --------------------------------------------
      LOOP:  cpu time    5.1501: real time    5.1511

 eigenvalue-minimisations  :  1032
 total energy-change (2. order) : 0.2182899E+00  (-0.3672018E-02)
 number of electron     572.0000404 magnetization 
 augmentation part      225.3100556 magnetization 

 Broyden mixing:
  rms(total) = 0.15543E+01    rms(broyden)= 0.15543E+01
  rms(prec ) = 0.18178E+01
  weight for this iteration     100.00

 eigenvalues of (default mixing * dielectric matrix)
  average eigenvalue GAMMA=   0.4893
  2.2257  0.5535  0.5535  0.4750  0.4750  0.3994  0.3994  0.1721  0.1721  0.1753
  0.1384  0.1319

 Free energy of the ion-electron system (eV)
  ---------------------------------------------------
  alpha Z        PSCENC =      1046.73971423
  Ewald energy   TEWEN  =    129972.53697314
  -Hartree energ DENC   =   -216283.13193320
  -exchange      EXHF   =         0.00000000
  -V(xc)+E(xc)   XCENC  =      2640.41277583
  PAW double counting   =    104502.89381856  -108128.04801740
  entropy T*S    EENTRO =        -0.71995414
  eigenvalues    EBANDS =    -12226.40718904
  atomic energy  EATOM  =     98224.10364994
  Solvation  Ediel_sol  =         0.00000000
  ---------------------------------------------------
  free energy    TOTEN  =      -251.62016210 eV

  energy without entropy =     -250.90020796  energy(sigma->0) =     -251.26018503


--------------------------------------------------------------------------------------------------------




--------------------------------------- Iteration      1(  18)  ---------------------------------------


    POTLOK:  cpu time    0.2031: real time    0.2035
    SETDIJ:  cpu time    0.0162: real time    0.0162
     EDDAV:  cpu time    4.5746: real time    4.5752
       DOS:  cpu time    0.0009: real time    0.0009
    CHARGE:  cpu time    0.1420: real time    0.1420
    MIXING:  cpu time    0.0117: real time    0.0117
    --------------------------------------------
      LOOP:  cpu time    4.9484: real time    5.0635

 eigenvalue-minimisations  :   984
 total energy-change (2. order) : 0.2162514E+00  (-0.9820619E-02)
 number of electron     572.0000402 magnetization 
 augmentation part      225.3295318 magnetization 

 Broyden mixing:
  rms(total) = 0.15275E+01    rms(broyden)= 0.15275E+01
  rms(prec ) = 0.17787E+01
  weight for this iteration     100.00

 eigenvalues of (default mixing * dielectric matrix)
  average eigenvalue GAMMA=   0.5956
  2.2355  1.1746  1.1746  0.6066  0.6066  0.4803  0.4803  0.1991  0.1807  0.1807
  0.1576  0.1333  0.1333

 Free energy of the ion-electron system (eV)
  ---------------------------------------------------
  alpha Z        PSCENC =      1046.73971423
  Ewald energy   TEWEN  =    129972.53697314
  -Hartree energ DENC   =   -216285.33123122
  -exchange      EXHF   =         0.00000000
  -V(xc)+E(xc)   XCENC  =      2640.42055138
  PAW double counting   =    104420.14821378  -108044.59118900
  entropy T*S    EENTRO =        -0.72417682
  eigenvalues    EBANDS =    -12224.70641608
  atomic energy  EATOM  =     98224.10364994
  Solvation  Ediel_sol  =         0.00000000
  ---------------------------------------------------
  free energy    TOTEN  =      -251.40391066 eV

  energy without entropy =     -250.67973383  energy(sigma->0) =     -251.04182225


--------------------------------------------------------------------------------------------------------




--------------------------------------- Iteration      1(  19)  ---------------------------------------


    POTLOK:  cpu time    0.2000: real time    0.3141
    SETDIJ:  cpu time    0.0154: real time    0.0154
     EDDAV:  cpu time    4.2997: real time    4.3022
       DOS:  cpu time    0.0009: real time    0.0009
    CHARGE:  cpu time    0.1365: real time    0.1366
    MIXING:  cpu time    0.0131: real time    0.0131
    --------------------------------------------
      LOOP:  cpu time    4.6657: real time    4.6683

 eigenvalue-minimisations  :   920
 total energy-change (2. order) : 0.1522249E+01  (-0.6534902E-01)
 number of electron     572.0000407 magnetization 
 augmentation part      225.4507478 magnetization 

 Broyden mixing:
  rms(total) = 0.13487E+01    rms(broyden)= 0.13486E+01
  rms(prec ) = 0.15572E+01
  weight for this iteration     100.00

 eigenvalues of (default mixing * dielectric matrix)
  average eigenvalue GAMMA=   0.6092
  2.2256  1.4392  1.4392  0.6593  0.6593  0.4766  0.4766  0.1951  0.1951  0.1949
  0.1523  0.1523  0.1315  0.1315

 Free energy of the ion-electron system (eV)
  ---------------------------------------------------
  alpha Z        PSCENC =      1046.73971423
  Ewald energy   TEWEN  =    129972.53697314
  -Hartree energ DENC   =   -216309.37634425
  -exchange      EXHF   =         0.00000000
  -V(xc)+E(xc)   XCENC  =      2640.54716313
  PAW double counting   =    103795.09832857  -107414.23999188
  entropy T*S    EENTRO =        -0.71538434
  eigenvalues    EBANDS =    -12204.57577046
  atomic energy  EATOM  =     98224.10364994
  Solvation  Ediel_sol  =         0.00000000
  ---------------------------------------------------
  free energy    TOTEN  =      -249.88166193 eV

  energy without entropy =     -249.16627759  energy(sigma->0) =     -249.52396976


--------------------------------------------------------------------------------------------------------




--------------------------------------- Iteration      1(  20)  ---------------------------------------


    POTLOK:  cpu time    0.2032: real time    0.2032
    SETDIJ:  cpu time    0.0158: real time    0.0158
     EDDAV:  cpu time    4.4820: real time    4.4825
       DOS:  cpu time    0.0011: real time    0.0011
    CHARGE:  cpu time    0.1462: real time    0.1462
    MIXING:  cpu time    0.0121: real time    0.0121
    --------------------------------------------
      LOOP:  cpu time    4.8603: real time    4.8608

 eigenvalue-minimisations  :   960
 total energy-change (2. order) : 0.1364316E+01  (-0.1539129E+00)
 number of electron     572.0000414 magnetization 
 augmentation part      225.5011756 magnetization 

 Broyden mixing:
  rms(total) = 0.10098E+01    rms(broyden)= 0.10096E+01
  rms(prec ) = 0.10872E+01
  weight for this iteration     100.00

 eigenvalues of (default mixing * dielectric matrix)
  average eigenvalue GAMMA=   0.5862
  2.2247  1.5046  1.5046  0.6165  0.6165  0.4749  0.4749  0.2252  0.2252  0.1985
  0.1615  0.1615  0.1371  0.1371  0.1301

 Free energy of the ion-electron system (eV)
  ---------------------------------------------------
  alpha Z        PSCENC =      1046.73971423
  Ewald energy   TEWEN  =    129972.53697314
  -Hartree energ DENC   =   -216337.77418490
  -exchange      EXHF   =         0.00000000
  -V(xc)+E(xc)   XCENC  =      2640.74948638
  PAW double counting   =    103051.93918640  -106664.55534658
  entropy T*S    EENTRO =        -0.73815437
  eigenvalues    EBANDS =    -12181.51866983
  atomic energy  EATOM  =     98224.10364994
  Solvation  Ediel_sol  =         0.00000000
  ---------------------------------------------------
  free energy    TOTEN  =      -248.51734559 eV

  energy without entropy =     -247.77919121  energy(sigma->0) =     -248.14826840


--------------------------------------------------------------------------------------------------------




--------------------------------------- Iteration      1(  21)  ---------------------------------------


    POTLOK:  cpu time    0.2043: real time    0.2043
    SETDIJ:  cpu time    0.0151: real time    0.0151
     EDDAV:  cpu time    3.9275: real time    3.9312
       DOS:  cpu time    0.0011: real time    0.0010
    CHARGE:  cpu time    0.1382: real time    0.1382
    MIXING:  cpu time    0.0129: real time    0.0129
    --------------------------------------------
      LOOP:  cpu time    4.2991: real time    4.3028

 eigenvalue-minimisations  :   808
 total energy-change (2. order) : 0.6210662E-01  (-0.5582838E-01)
 number of electron     572.0000415 magnetization 
 augmentation part      225.4734566 magnetization 

 Broyden mixing:
  rms(total) = 0.94264E+00    rms(broyden)= 0.94262E+00
  rms(prec ) = 0.10036E+01
  weight for this iteration     100.00

 eigenvalues of (default mixing * dielectric matrix)
  average eigenvalue GAMMA=   0.5643
  2.2217  1.5442  1.5442  0.5840  0.5840  0.4740  0.4740  0.2392  0.2392  0.2023
  0.1841  0.1841  0.1459  0.1459  0.1312  0.1312

 Free energy of the ion-electron system (eV)
  ---------------------------------------------------
  alpha Z        PSCENC =      1046.73971423
  Ewald energy   TEWEN  =    129972.53697314
  -Hartree energ DENC   =   -216342.74076559
  -exchange      EXHF   =         0.00000000
  -V(xc)+E(xc)   XCENC  =      2640.79120501
  PAW double counting   =    102948.77280867  -106560.37210461
  entropy T*S    EENTRO =        -0.74223753
  eigenvalues    EBANDS =    -12177.54448221
  atomic energy  EATOM  =     98224.10364994
  Solvation  Ediel_sol  =         0.00000000
  ---------------------------------------------------
  free energy    TOTEN  =      -248.45523896 eV

  energy without entropy =     -247.71300143  energy(sigma->0) =     -248.08412020


--------------------------------------------------------------------------------------------------------




--------------------------------------- Iteration      1(  22)  ---------------------------------------


    POTLOK:  cpu time    0.2039: real time    0.2039
    SETDIJ:  cpu time    0.0144: real time    0.0144
     EDDAV:  cpu time    3.7600: real time    3.7605
       DOS:  cpu time    0.0009: real time    0.0009
    CHARGE:  cpu time    0.1374: real time    0.1374
    MIXING:  cpu time    0.0142: real time    0.0142
    --------------------------------------------
      LOOP:  cpu time    4.1307: real time    4.1312

 eigenvalue-minimisations  :   824
 total energy-change (2. order) : 0.5158841E-01  (-0.2569786E-02)
 number of electron     572.0000416 magnetization 
 augmentation part      225.4583437 magnetization 

 Broyden mixing:
  rms(total) = 0.91095E+00    rms(broyden)= 0.91094E+00
  rms(prec ) = 0.96460E+00
  weight for this iteration     100.00

 eigenvalues of (default mixing * dielectric matrix)
  average eigenvalue GAMMA=   0.6278
  2.2411  1.6405  1.6405  0.7158  0.7158  0.7208  0.7208  0.4755  0.4755  0.2060
  0.2060  0.1689  0.1689  0.1671  0.1453  0.1317  0.1317

 Free energy of the ion-electron system (eV)
  ---------------------------------------------------
  alpha Z        PSCENC =      1046.73971423
  Ewald energy   TEWEN  =    129972.53697314
  -Hartree energ DENC   =   -216345.89356775
  -exchange      EXHF   =         0.00000000
  -V(xc)+E(xc)   XCENC  =      2640.81778856
  PAW double counting   =    102888.54740715  -106499.60552350
  entropy T*S    EENTRO =        -0.74605228
  eigenvalues    EBANDS =    -12174.90404004
  atomic energy  EATOM  =     98224.10364994
  Solvation  Ediel_sol  =         0.00000000
  ---------------------------------------------------
  free energy    TOTEN  =      -248.40365056 eV

  energy without entropy =     -247.65759828  energy(sigma->0) =     -248.03062442


--------------------------------------------------------------------------------------------------------




--------------------------------------- Iteration      1(  23)  ---------------------------------------


    POTLOK:  cpu time    0.2050: real time    0.2050
    SETDIJ:  cpu time    0.0146: real time    0.0146
     EDDAV:  cpu time    4.3159: real time    4.3165
       DOS:  cpu time    0.0011: real time    0.0011
    CHARGE:  cpu time    0.1433: real time    0.1433
    MIXING:  cpu time    0.0148: real time    0.0148
    --------------------------------------------
      LOOP:  cpu time    4.6947: real time    4.6954

 eigenvalue-minimisations  :   912
 total energy-change (2. order) : 0.7193756E-01  (-0.1365467E-01)
 number of electron     572.0000414 magnetization 
 augmentation part      225.4626756 magnetization 

 Broyden mixing:
  rms(total) = 0.83131E+00    rms(broyden)= 0.83124E+00
  rms(prec ) = 0.88755E+00
  weight for this iteration     100.00

 eigenvalues of (default mixing * dielectric matrix)
  average eigenvalue GAMMA=   0.6480
  2.2821  1.7690  1.7690  0.8934  0.8934  0.7865  0.7865  0.4745  0.4745  0.2224
  0.2224  0.1905  0.1703  0.1703  0.1482  0.1482  0.1313  0.1313

 Free energy of the ion-electron system (eV)
  ---------------------------------------------------
  alpha Z        PSCENC =      1046.73971423
  Ewald energy   TEWEN  =    129972.53697314
  -Hartree energ DENC   =   -216352.73457189
  -exchange      EXHF   =         0.00000000
  -V(xc)+E(xc)   XCENC  =      2640.87203959
  PAW double counting   =    102775.72248308  -106385.79710620
  entropy T*S    EENTRO =        -0.73878911
  eigenvalues    EBANDS =    -12169.03610578
  atomic energy  EATOM  =     98224.10364994
  Solvation  Ediel_sol  =         0.00000000
  ---------------------------------------------------
  free energy    TOTEN  =      -248.33171300 eV

  energy without entropy =     -247.59292390  energy(sigma->0) =     -247.96231845


--------------------------------------------------------------------------------------------------------




--------------------------------------- Iteration      1(  24)  ---------------------------------------


    POTLOK:  cpu time    0.2073: real time    0.2074
    SETDIJ:  cpu time    0.0142: real time    0.0142
     EDDAV:  cpu time    3.9942: real time    3.9976
       DOS:  cpu time    0.0009: real time    0.0009
    CHARGE:  cpu time    0.1399: real time    0.1399
    MIXING:  cpu time    0.0147: real time    0.0147
    --------------------------------------------
      LOOP:  cpu time    4.3713: real time    4.3747

 eigenvalue-minimisations  :   832
 total energy-change (2. order) : 0.1248779E+00  (-0.2477420E-01)
 number of electron     572.0000416 magnetization 
 augmentation part      225.4562929 magnetization 

 Broyden mixing:
  rms(total) = 0.64684E+00    rms(broyden)= 0.64671E+00
  rms(prec ) = 0.68230E+00
  weight for this iteration     100.00

 eigenvalues of (default mixing * dielectric matrix)
  average eigenvalue GAMMA=   0.6725
  2.2903  1.7974  1.7974  1.1796  1.1796  0.7548  0.7548  0.5860  0.4715  0.4715
  0.2098  0.2098  0.1715  0.1715  0.1730  0.1547  0.1423  0.1314  0.1314

 Free energy of the ion-electron system (eV)
  ---------------------------------------------------
  alpha Z        PSCENC =      1046.73971423
  Ewald energy   TEWEN  =    129972.53697314
  -Hartree energ DENC   =   -216362.09826788
  -exchange      EXHF   =         0.00000000
  -V(xc)+E(xc)   XCENC  =      2640.92954580
  PAW double counting   =    102689.09022438  -106298.32664296
  entropy T*S    EENTRO =        -0.76019690
  eigenvalues    EBANDS =    -12160.42183480
  atomic energy  EATOM  =     98224.10364994
  Solvation  Ediel_sol  =         0.00000000
  ---------------------------------------------------
  free energy    TOTEN  =      -248.20683506 eV

  energy without entropy =     -247.44663816  energy(sigma->0) =     -247.82673661


--------------------------------------------------------------------------------------------------------




--------------------------------------- Iteration      1(  25)  ---------------------------------------


    POTLOK:  cpu time    0.2050: real time    0.2051
    SETDIJ:  cpu time    0.0145: real time    0.0145
     EDDAV:  cpu time    4.4117: real time    4.4123
       DOS:  cpu time    0.0010: real time    0.0010
    CHARGE:  cpu time    0.1394: real time    0.1394
    MIXING:  cpu time    0.0152: real time    0.0152
    --------------------------------------------
      LOOP:  cpu time    4.7869: real time    4.7875

 eigenvalue-minimisations  :   944
 total energy-change (2. order) : 0.4811336E-01  (-0.3625974E-01)
 number of electron     572.0000421 magnetization 
 augmentation part      225.4003662 magnetization 

 Broyden mixing:
  rms(total) = 0.47447E+00    rms(broyden)= 0.47414E+00
  rms(prec ) = 0.50598E+00
  weight for this iteration     100.00

 eigenvalues of (default mixing * dielectric matrix)
  average eigenvalue GAMMA=   0.6694
  2.3342  1.6667  1.6667  1.4890  1.4890  0.7119  0.7119  0.6899  0.4727  0.4727
  0.2152  0.2152  0.1904  0.1716  0.1716  0.1633  0.1315  0.1315  0.1492  0.1440

 Free energy of the ion-electron system (eV)
  ---------------------------------------------------
  alpha Z        PSCENC =      1046.73971423
  Ewald energy   TEWEN  =    129972.53697314
  -Hartree energ DENC   =   -216378.99588945
  -exchange      EXHF   =         0.00000000
  -V(xc)+E(xc)   XCENC  =      2641.02837461
  PAW double counting   =    102448.86021384  -106055.42984404
  entropy T*S    EENTRO =        -0.77267673
  eigenvalues    EBANDS =    -12146.22923723
  atomic energy  EATOM  =     98224.10364994
  Solvation  Ediel_sol  =         0.00000000
  ---------------------------------------------------
  free energy    TOTEN  =      -248.15872170 eV

  energy without entropy =     -247.38604496  energy(sigma->0) =     -247.77238333


--------------------------------------------------------------------------------------------------------




--------------------------------------- Iteration      1(  26)  ---------------------------------------


    POTLOK:  cpu time    0.2059: real time    0.2059
    SETDIJ:  cpu time    0.0147: real time    0.0147
     EDDAV:  cpu time    3.8633: real time    3.8639
       DOS:  cpu time    0.0011: real time    0.0011
    CHARGE:  cpu time    0.1450: real time    0.1450
    MIXING:  cpu time    0.0155: real time    0.0155
    --------------------------------------------
      LOOP:  cpu time    4.2456: real time    4.2461

 eigenvalue-minimisations  :   792
 total energy-change (2. order) : 0.2720898E-01  (-0.2353128E-01)
 number of electron     572.0000417 magnetization 
 augmentation part      225.3886369 magnetization 

 Broyden mixing:
  rms(total) = 0.30503E+00    rms(broyden)= 0.30489E+00
  rms(prec ) = 0.32512E+00
  weight for this iteration     100.00

 eigenvalues of (default mixing * dielectric matrix)
  average eigenvalue GAMMA=   0.6525
  2.2281  1.6254  1.6254  1.5984  1.5984  0.6853  0.6853  0.6831  0.4737  0.4737
  0.3388  0.2171  0.2171  0.1917  0.1715  0.1715  0.1585  0.1555  0.1313  0.1313
  0.1407

 Free energy of the ion-electron system (eV)
  ---------------------------------------------------
  alpha Z        PSCENC =      1046.73971423
  Ewald energy   TEWEN  =    129972.53697314
  -Hartree energ DENC   =   -216386.51257297
  -exchange      EXHF   =         0.00000000
  -V(xc)+E(xc)   XCENC  =      2641.07336838
  PAW double counting   =    102397.07267925  -106002.82192647
  entropy T*S    EENTRO =        -0.78549819
  eigenvalues    EBANDS =    -12139.53790003
  atomic energy  EATOM  =     98224.10364994
  Solvation  Ediel_sol  =         0.00000000
  ---------------------------------------------------
  free energy    TOTEN  =      -248.13151271 eV

  energy without entropy =     -247.34601453  energy(sigma->0) =     -247.73876362


--------------------------------------------------------------------------------------------------------




--------------------------------------- Iteration      1(  27)  ---------------------------------------


    POTLOK:  cpu time    0.2082: real time    0.2082
    SETDIJ:  cpu time    0.0146: real time    0.0146
     EDDAV:  cpu time    3.7111: real time    3.7120
       DOS:  cpu time    0.0010: real time    0.0010
    CHARGE:  cpu time    0.1540: real time    0.1540
    MIXING:  cpu time    0.0335: real time    0.0335
    --------------------------------------------
      LOOP:  cpu time    4.1225: real time    4.1234

 eigenvalue-minimisations  :   808
 total energy-change (2. order) :-0.2018614E-01  (-0.7813562E-02)
 number of electron     572.0000419 magnetization 
 augmentation part      225.3473977 magnetization 

 Broyden mixing:
  rms(total) = 0.31361E+00    rms(broyden)= 0.31357E+00
  rms(prec ) = 0.35045E+00
  weight for this iteration     100.00

 eigenvalues of (default mixing * dielectric matrix)
  average eigenvalue GAMMA=   0.6440
[...]
    344       5.8015      0.00000


--------------------------------------------------------------------------------------------------------


 soft charge-density along one line, spin component           1
         0         1         2         3         4         5         6         7         8         9
 total charge-density along one line
 
 pseudopotential strength for first ion, spin component:           1
-65.904   0.027  -0.041  12.295  -0.011   0.017  -0.009   0.005
  0.027 -66.087   0.101  -0.011  12.369  -0.041   0.009  -0.012
 -0.041   0.101 -66.005   0.017  -0.041  12.338  -0.008   0.009
 12.295  -0.011   0.017   4.860   0.003  -0.005   0.003  -0.005
 -0.011  12.369  -0.041   0.003   4.837   0.012  -0.002   0.005
  0.017  -0.041  12.338  -0.005   0.012   4.849   0.003  -0.002
 -0.009   0.009  -0.008   0.003  -0.002   0.003 -11.142   0.047
  0.005  -0.012   0.009  -0.005   0.005  -0.002   0.047 -11.150
  0.005   0.023  -0.002  -0.002  -0.010  -0.000   0.005   0.028
  0.009  -0.018   0.018  -0.002   0.004  -0.007   0.005  -0.055
  0.013   0.007  -0.005  -0.005  -0.001   0.001  -0.023  -0.020
 -0.009   0.009  -0.008   0.003  -0.002   0.003 -11.684   0.047
  0.005  -0.012   0.009  -0.004   0.004  -0.002   0.047 -11.693
  0.005   0.023  -0.002  -0.002  -0.010  -0.000   0.005   0.028
  0.009  -0.017   0.018  -0.002   0.004  -0.007   0.005  -0.055
  0.013   0.006  -0.005  -0.005  -0.001   0.001  -0.023  -0.019
  0.003  -0.004   0.004  -0.002   0.003   0.001   0.008  -0.006
  0.005  -0.010   0.009  -0.005   0.007   0.002   0.017  -0.012
 total augmentation occupancy for first ion, spin component:           1
  1.996   0.000  -0.000  -0.016   0.000  -0.000   0.005  -0.003  -0.003   0.001  -0.007  -0.004   0.003   0.004  -0.001   0.007
  0.000   1.995   0.000   0.000  -0.018   0.000   0.000   0.007  -0.001  -0.021   0.006  -0.000  -0.006   0.001   0.021  -0.005
 -0.000   0.000   1.995  -0.000   0.000  -0.016   0.006   0.000  -0.006   0.008  -0.016  -0.006  -0.000   0.005  -0.008   0.015
 -0.016   0.000  -0.000   0.126  -0.009   0.002   0.206   0.068  -0.020  -0.061  -0.023  -0.186  -0.068   0.015   0.037   0.017
  0.000  -0.018   0.000  -0.009   0.141  -0.025  -0.020   0.100   0.001  -0.269   0.072   0.003  -0.086  -0.043   0.283  -0.078
 -0.000   0.000  -0.016   0.002  -0.025   0.147   0.029  -0.042  -0.137   0.165  -0.248  -0.037   0.022   0.139  -0.187   0.230
  0.005   0.000   0.006   0.206  -0.020   0.029   4.255  -0.220  -0.313  -0.024  -0.288  -2.616   0.138   0.066  -0.052   0.019
 -0.003   0.007   0.000   0.068   0.100  -0.042  -0.220   3.824   0.115   0.003   0.313   0.142  -1.865   0.102  -0.339  -0.336
 -0.003  -0.001  -0.006  -0.020   0.001  -0.137  -0.313   0.115   4.049   0.443  -0.149   0.072   0.103  -2.324   0.156  -0.042
  0.001  -0.021   0.008  -0.061  -0.269   0.165  -0.024   0.003   0.443   3.916  -0.094  -0.053  -0.343   0.158  -2.688   0.162
 -0.007   0.006  -0.016  -0.023   0.072  -0.248  -0.288   0.313  -0.149  -0.094   4.173   0.021  -0.336  -0.046   0.166  -2.223
 -0.004  -0.000  -0.006  -0.186   0.003  -0.037  -2.616   0.142   0.072  -0.053   0.021   2.702  -0.087   0.095   0.092   0.161
  0.003  -0.006  -0.000  -0.068  -0.086   0.022   0.138  -1.865   0.103  -0.343  -0.336  -0.087   1.748  -0.244   0.554   0.339
  0.004   0.001   0.005   0.015  -0.043   0.139   0.066   0.102  -2.324   0.158  -0.046   0.095  -0.244   2.353  -0.566   0.174
 -0.001   0.021  -0.008   0.037   0.283  -0.187  -0.052  -0.339   0.156  -2.688   0.166   0.092   0.554  -0.566   3.063  -0.233
  0.007  -0.005   0.015   0.017  -0.078   0.230   0.019  -0.336  -0.042   0.162  -2.223   0.161   0.339   0.174  -0.233   2.131
 -0.002  -0.003  -0.009  -0.016  -0.096   0.050  -0.107   0.170  -0.013   0.530  -0.327   0.058  -0.140  -0.007  -0.445   0.236
  0.001   0.002   0.004   0.003   0.002  -0.003   0.031  -0.015   0.004  -0.046   0.038  -0.009   0.005   0.018   0.006  -0.009


------------------------ aborting loop because EDIFF is reached ----------------------------------------


    CHARGE:  cpu time    0.1428: real time    0.1428
    FORLOC:  cpu time    0.0679: real time    0.0679
    FORNL :  cpu time    0.7160: real time    0.7161
    STRESS:  cpu time    2.1743: real time    2.1747
    FORCOR:  cpu time    0.2590: real time    0.2590
    FORHAR:  cpu time    0.1080: real time    0.1080
    MIXING:  cpu time    0.0267: real time    0.0267
    OFIELD:  cpu time    0.0001: real time    0.0001

  FORCE on cell =-STRESS in cart. coord.  units (eV):
  Direction    XX          YY          ZZ          XY          YZ          ZX
  --------------------------------------------------------------------------------------
  Alpha Z  1046.73971  1046.73971  1046.73971
  Ewald  167380.07319165699.84858************  -950.81956   693.76099    67.24317
  Hartree191524.89475190287.44495************  -748.10092   642.76643   -66.96611
  E(xc)   -3652.26686 -3653.04967 -3657.96000    -0.25640    -0.09876     0.57217
  Local  ************************359367.80164  1692.21966 -1342.22719    17.06523
  n-local  -409.72943  -420.99652  -431.05417    -4.26041    -5.17141     3.42103
  augment  4165.70050  4183.74736  4194.66600     3.38355     4.71656    -8.06686
  Kinetic  8014.04131  8019.80643  8089.03875     5.09308     1.62952   -15.14497
  Fock        0.00000     0.00000     0.00000     0.00000     0.00000     0.00000
  -------------------------------------------------------------------------------------
  Total     100.66854    95.31188   102.00568    -2.74099    -4.62385    -1.87634
  in kB      87.01020    82.38031    88.16591    -2.36911    -3.99651    -1.62176
  external pressure =       85.85 kB  Pullay stress =        0.00 kB


 VOLUME and BASIS-vectors are now :
 -----------------------------------------------------------------------------
  energy-cutoff  :      450.00
  volume of cell :     1853.68
      direct lattice vectors                 reciprocal lattice vectors
    11.256463038  0.000000000  0.000000000     0.088837852  0.000000000  0.000000000
     0.000000000  9.578410000  0.000000000     0.000000000  0.104401461  0.000000000
     0.000000000  0.000000000 17.192492405     0.000000000  0.000000000  0.058164923

  length of vectors
    11.256463038  9.578410000 17.192492405     0.088837852  0.104401461  0.058164923


 FORCES acting on ions
    electron-ion (+dipol)            ewald-force                    non-local-force                 convergence-correction
 -----------------------------------------------------------------------------------------------
   0.564E+03 -.314E+03 0.141E+04   -.566E+03 0.314E+03 -.141E+04   0.747E+00 -.683E+00 0.371E+01   -.190E-01 -.489E-01 0.720E-01
   0.427E+03 -.931E+03 -.328E+04   -.429E+03 0.931E+03 0.328E+04   0.788E+00 0.175E+01 -.288E+01   -.112E+00 -.461E-01 0.339E-01
   -.386E+03 -.320E+03 0.295E+04   0.388E+03 0.322E+03 -.296E+04   -.174E+01 -.116E+01 0.442E+01   0.299E-01 0.119E+00 0.118E-01
   0.134E+03 -.390E+03 -.171E+04   -.138E+03 0.394E+03 0.172E+04   0.299E+01 -.244E+01 -.248E+01   0.140E+00 0.421E-01 0.608E-01
   0.102E+03 0.183E+03 0.158E+04   -.101E+03 -.184E+03 -.158E+04   -.600E+00 0.120E+01 0.502E+01   -.141E-01 0.589E-01 0.111E+00
   0.283E+03 0.271E+03 -.326E+04   -.284E+03 -.274E+03 0.326E+04   -.903E-01 0.151E+01 -.408E+01   -.794E-01 -.165E-01 0.310E-01
   0.229E+03 0.670E+03 0.344E+04   -.229E+03 -.672E+03 -.346E+04   0.889E+00 0.646E+00 0.101E+02   0.350E-01 -.211E-01 0.590E-02
   -.517E+02 0.866E+03 -.623E+03   0.516E+02 -.873E+03 0.627E+03   -.452E+00 0.597E+01 -.426E+01   0.132E+00 -.637E-01 0.491E-01
   -.159E+03 -.923E+03 0.207E+04   0.160E+03 0.927E+03 -.208E+04   -.100E+01 -.387E+01 0.217E+01   0.101E+00 -.299E-01 -.239E-01
   -.696E+03 -.168E+03 -.269E+04   0.702E+03 0.168E+03 0.269E+04   -.508E+01 0.620E+00 -.376E+01   0.204E+00 0.425E-02 -.141E-01
   0.289E+03 0.806E+02 0.354E+04   -.289E+03 -.808E+02 -.354E+04   -.866E+00 0.536E+00 0.421E+01   0.424E-01 -.546E-01 0.237E-01
   -.341E+03 0.379E+03 -.764E+03   0.346E+03 -.381E+03 0.767E+03   -.372E+01 0.112E+01 -.297E+01   0.988E-01 0.153E-01 0.160E+00
   0.134E+03 0.314E+03 -.341E+04   -.133E+03 -.317E+03 0.341E+04   -.200E+01 0.297E+01 -.241E+01   -.260E-01 0.647E-01 0.297E-01
   0.167E+02 -.359E+03 0.122E+04   -.174E+02 0.363E+03 -.122E+04   0.142E+01 -.320E+01 0.606E+01   0.248E-01 -.452E-01 -.824E-01
   0.205E+03 -.472E+03 -.347E+04   -.205E+03 0.473E+03 0.348E+04   -.518E+00 0.438E+00 -.643E+01   0.101E+00 0.411E-02 0.914E-01
   -.330E+03 -.365E+03 0.330E+04   0.331E+03 0.370E+03 -.331E+04   -.137E+00 -.363E+01 0.490E+01   -.230E-01 0.159E-01 0.202E-01
   -.304E+03 -.515E+03 -.131E+04   0.305E+03 0.518E+03 0.131E+04   -.584E-01 -.172E+01 -.348E+01   -.209E+00 -.928E-02 0.799E-01
   0.685E+03 -.880E+02 0.153E+04   -.690E+03 0.875E+02 -.153E+04   0.350E+01 0.787E+00 0.295E+01   0.369E-01 -.190E-01 -.841E-01
   0.392E+03 0.481E+03 -.321E+04   -.394E+03 -.486E+03 0.322E+04   0.562E+00 0.324E+01 -.468E+01   0.574E-01 0.542E-02 0.313E-02
   -.492E+03 0.307E+03 0.262E+04   0.494E+03 -.309E+03 -.263E+04   -.208E+01 0.229E+01 0.550E+01   -.746E-01 -.285E-01 0.108E-01
   0.580E+02 0.435E+03 -.162E+04   -.585E+02 -.437E+03 0.162E+04   0.110E+01 0.749E+00 -.432E+01   -.191E+00 0.581E-01 0.412E-01
   -.542E+03 0.122E+03 0.236E+04   0.546E+03 -.124E+03 -.237E+04   -.328E+01 0.140E+01 0.562E+01   -.126E+00 0.964E-02 -.136E-01
   -.628E+03 -.440E+02 -.251E+04   0.635E+03 0.430E+02 0.252E+04   -.492E+01 0.120E+01 -.293E+01   -.227E+00 -.337E-01 0.552E-01
   0.636E+03 0.531E+03 0.316E+04   -.639E+03 -.532E+03 -.316E+04   0.150E+01 0.139E+01 0.355E+01   -.253E-01 0.755E-01 -.597E-01
   -.701E+01 0.672E+02 -.158E+03   0.431E+01 -.638E+02 0.154E+03   0.157E+01 -.279E+01 0.117E+01   -.944E-01 0.392E-01 -.222E-01
   0.332E+02 0.144E+03 -.347E+04   -.315E+02 -.143E+03 0.348E+04   -.186E+01 -.965E+00 -.613E+01   0.127E+00 -.275E-01 0.773E-01
   0.169E+03 -.282E+03 0.177E+04   -.171E+03 0.284E+03 -.177E+04   0.609E+00 -.149E+01 0.329E+01   0.624E-03 0.155E-01 -.106E-01
   -.722E+02 0.136E+03 -.380E+03   0.736E+02 -.137E+03 0.381E+03   -.762E+00 -.378E+00 -.135E+01   0.542E-01 0.341E-01 -.258E-01
   0.121E+03 0.399E+03 0.762E+03   -.122E+03 -.401E+03 -.764E+03   0.168E+01 -.644E+00 0.197E+01   0.197E-01 -.505E-01 0.333E-01
   -.146E+03 -.223E+03 -.122E+03   0.149E+03 0.224E+03 0.120E+03   -.195E+01 0.671E-01 -.177E+00   0.831E-01 -.246E-01 -.446E-02
   -.113E+03 0.413E+02 -.186E+04   0.114E+03 -.416E+02 0.186E+04   -.336E+00 0.933E-01 -.105E+01   0.610E-01 0.117E-01 0.446E-01
   -.255E+03 -.136E+03 0.753E+03   0.259E+03 0.137E+03 -.756E+03   -.466E+00 -.468E+00 0.302E+01   0.389E-01 0.453E-01 0.334E-01
   0.160E+03 -.520E+02 -.122E+04   -.159E+03 0.540E+02 0.122E+04   -.184E+01 -.202E+01 -.119E+01   0.835E-01 0.210E-01 0.293E-01
   0.170E+02 -.271E+03 0.122E+04   -.168E+02 0.273E+03 -.122E+04   -.374E+00 -.990E+00 0.456E+01   0.199E-01 0.103E-01 0.210E-01
   0.222E+03 -.107E+03 -.609E+03   -.225E+03 0.107E+03 0.610E+03   0.143E+01 -.361E-01 -.770E+00   0.386E-01 -.918E-02 0.281E-01
   0.253E+02 0.108E+03 0.188E+04   -.247E+02 -.109E+03 -.189E+04   -.188E+00 0.623E+00 0.314E+01   -.133E-01 0.199E-01 -.518E-01
   0.236E+03 0.246E+03 0.499E+03   -.238E+03 -.246E+03 -.500E+03   -.743E-01 0.958E+00 0.180E+01   0.252E-01 -.227E-02 -.416E-02
   -.242E+03 0.120E+03 -.161E+04   0.243E+03 -.122E+03 0.162E+04   -.383E+00 0.123E+01 -.298E+01   0.579E-01 -.807E-02 0.205E-01
   -.336E+02 0.505E+01 0.150E+04   0.330E+02 -.577E+01 -.151E+04   0.433E+00 0.202E+00 0.369E+01   -.250E-01 0.158E-01 0.468E-02
   -.170E+03 0.126E+03 -.176E+03   0.172E+03 -.127E+03 0.175E+03   -.470E+00 -.106E+00 0.279E+00   -.787E-01 -.382E-01 0.321E-01
   -.237E+03 0.119E+02 0.102E+04   0.240E+03 -.105E+02 -.103E+04   -.173E+01 -.539E+00 0.494E+01   -.517E-01 0.105E-01 -.393E-01
   0.139E+03 0.537E+02 -.108E+04   -.140E+03 -.542E+02 0.109E+04   0.891E+00 -.536E-01 -.355E+01   -.296E-01 0.467E-02 0.426E-01
   0.511E+02 0.686E+02 0.170E+04   -.519E+02 -.688E+02 -.171E+04   0.553E+00 0.116E+00 0.250E+01   -.176E-01 -.379E-03 0.358E-02
   -.577E+02 -.176E+03 -.344E+03   0.591E+02 0.176E+03 0.346E+03   -.854E+00 0.183E+01 -.354E+01   -.794E-01 0.216E-01 0.811E-02
   -.126E+03 -.227E+02 -.186E+04   0.127E+03 0.223E+02 0.186E+04   -.235E-01 0.139E+00 -.562E+00   -.826E-01 -.117E-01 0.118E-01
   0.489E+02 -.499E+02 0.797E+03   -.495E+02 0.512E+02 -.799E+03   0.107E+01 -.782E+00 0.214E+01   -.170E-01 0.264E-01 -.112E-01
   0.119E+03 -.907E+02 -.131E+04   -.120E+03 0.917E+02 0.132E+04   0.399E+00 0.110E+00 -.661E+00   -.162E-01 -.135E-03 0.322E-01
   -.784E+01 -.643E+02 0.122E+04   0.739E+01 0.656E+02 -.123E+04   0.758E+00 -.135E+01 0.463E+01   -.113E-01 -.274E-01 -.434E-01
   0.235E+03 0.521E+02 -.610E+03   -.238E+03 -.531E+02 0.611E+03   0.740E+00 -.303E+00 0.193E-01   -.854E-02 -.224E-01 -.121E-01
   -.228E+03 0.379E+02 0.179E+04   0.229E+03 -.375E+02 -.180E+04   -.452E+00 -.365E+00 0.294E+01   0.577E-02 -.184E-01 -.245E-01
   0.329E+02 -.196E+02 0.232E+03   -.333E+02 0.212E+02 -.231E+03   -.133E+01 -.166E+01 0.108E+01   -.614E-02 0.206E-02 0.562E-01
   -.123E+03 0.124E+03 -.168E+04   0.123E+03 -.125E+03 0.169E+04   0.220E+00 0.162E+00 -.202E+01   -.888E-01 0.279E-01 0.570E-02
 -----------------------------------------------------------------------------------------------
   0.161E+02 -.177E+01 -.315E+02   -.153E-11 -.142E-13 -.182E-11   -.158E+02 0.170E+01 0.307E+02   -.128E+00 0.121E+00 0.848E+00
 
 
 POSITION                                       TOTAL-FORCE (eV/Angst)
 -----------------------------------------------------------------------------------
      4.94536      4.44331      2.79952        -1.219284     -0.027707      1.903317
      5.53717      4.31683      5.58707        -0.836669      1.936033      0.346462
      2.24116      1.18088      1.93844         0.342031      0.586391     -0.131731
      2.42308      9.23251      4.34179        -0.892078      0.911646     -1.050673
      4.94536      1.91264      2.79952         0.303002     -0.218297      1.600377
      5.45159      1.81611      5.56679        -0.884874     -1.083860      0.520955
      2.69074      8.00749      1.81748         0.372895     -1.611521     -1.264838
      2.33332      6.59186      4.01025        -0.404729     -1.074133     -0.300852
      1.34969      3.24773      2.70489        -0.004808      0.613866     -0.192260
      2.06658      3.17085      5.18247         1.422802      0.175769      0.197381
      5.33489      7.35036      1.56777        -1.006850      0.248591     -0.369707
      4.43885      7.98273      3.83402         1.262240     -0.636181      0.178024
      6.06290      8.76344      5.48181        -0.734439      0.212715      0.001050
     10.36033      4.69037      3.33763         0.750072      0.022705     -0.315643
     11.15467      4.40186      5.66122        -0.570976      1.018171      0.459720
      7.49066      9.21998      1.68080         0.549509      0.904180     -0.607957
      8.05131      9.23251      4.34179         1.042634      1.432964     -1.367358
     10.57359      1.91264      2.79952        -1.572095      0.234773      2.294092
     11.02522      1.76285      5.52560        -0.955856     -1.595643      0.443894
      7.33364      6.03551      2.13863         0.419086     -0.328014      0.164493
      8.05131      6.70184      4.34179         0.438877     -0.965793     -0.366250
      7.09877      3.17797      2.39204         0.709695      0.281201      1.607772
      7.70473      3.16446      5.13059         1.780442      0.090463      0.320636
      0.18607      9.46527      1.83039        -1.448207      0.073132      0.086093
     10.20472      7.96718      3.93431        -1.225191      0.639083     -2.383311
      0.63875      7.52737      5.48373        -0.012887     -0.356537      0.371485
      0.50965      2.00337      1.16015        -0.812638      0.828506     -3.082013
      1.25497      1.56674      4.10795         0.608533     -1.536481     -0.609134
      3.77725      6.35595      2.56568         1.209394     -2.606391     -0.653026
      1.25497      4.78920      4.10795         1.064870      1.110416     -1.349053
      0.82089      2.97788      6.79624         0.649182     -0.260814      4.357819
      3.77725      9.57841      2.56568         3.013052      0.988108     -0.227820
      4.26753      0.10821      5.30954        -0.866616     -0.062068      2.027106
      3.37230      3.04593      2.00033        -0.186869      1.381773     -2.485216
      4.14113      3.17797      4.62682        -1.764873      0.364261     -0.253851
      1.74575      9.27506      0.50986         0.343700     -0.609433     -3.941169
      1.03518      7.96718      3.08454        -2.078804      0.161275      0.452706
      2.66340      7.64896      5.72783         1.356816     -0.512460      3.525588
      6.45707      1.44130      1.43174        -0.166563     -0.502314     -2.634740
      6.88320      1.56674      4.10795         1.196547     -1.654232     -1.066346
      9.40548      6.35595      2.56568         0.865855      0.878179     -1.481058
     10.18732      6.22887      5.15304        -0.745939     -0.542389      1.993672
      6.19069      4.61040      1.19496        -0.248756     -0.129806     -3.480951
      6.88320      4.78920      4.10795         0.433860      1.785729     -0.813604
      6.52971      3.04909      6.80806         0.628521     -0.297924      3.833809
      9.40548      9.57841      2.56568         0.383271      0.561668     -0.148900
     10.71674      9.24408      5.51942        -0.767960      1.125461      2.298302
      9.19270      3.38133      2.08617         0.295353     -0.008721     -2.257723
      9.76936      3.17797      4.62682        -1.613144     -1.369440      0.701592
      7.13288      7.47924      0.59277         0.714672      0.067626     -3.277284
      6.66341      7.96718      3.08454        -1.661040     -0.031710      2.688575
      7.85603      7.97463      5.94693         0.525236     -0.612811      3.737550
 -----------------------------------------------------------------------------------
    total drift:                                0.184748      0.051710      0.054452


--------------------------------------------------------------------------------------------------------



  FREE ENERGIE OF THE ION-ELECTRON SYSTEM (eV)
  ---------------------------------------------------
  free  energy   TOTEN  =      -248.11117272 eV

  energy  without entropy=     -247.34242054  energy(sigma->0) =     -247.72679663
 


--------------------------------------------------------------------------------------------------------


    POTLOK:  cpu time    0.2189: real time    0.2192


--------------------------------------------------------------------------------------------------------


     LOOP+:  cpu time  180.0298: real time  180.2580
    4ORBIT:  cpu time    0.0000: real time    0.0000

 total amount of memory used by VASP MPI-rank0    60031. kBytes
=======================================================================

   base      :      30000. kBytes
   nonlr-proj:       1496. kBytes
   fftplans  :       7078. kBytes
   grid      :      11974. kBytes
   one-center:         69. kBytes
   wavefun   :       9414. kBytes
 
  
  
 General timing and accounting informations for this job:
 ========================================================
  
                  Total CPU time used (sec):      182.009
                            User time (sec):      181.720
                          System time (sec):        0.289
                         Elapsed time (sec):      182.482
  
                   Maximum memory used (kb):      171780.
                   Average memory used (kb):           0.
  
                          Minor page faults:        83896
                          Major page faults:            0
                 Voluntary context switches:          216
