       N       E                     dE             d eps       ncg     rms          rms(c)
DAV:   1     0.969084623851E+04    0.96908E+04   -0.50835E+05  1168   0.163E+03
DAV:   2     0.590642142283E+03   -0.91002E+04   -0.87763E+04  1016   0.522E+02
DAV:   3    -0.342715071110E+03   -0.93336E+03   -0.88002E+03  1096   0.179E+02
DAV:   4    -0.403663478366E+03   -0.60948E+02   -0.60142E+02  1120   0.404E+01
DAV:   5    -0.406017143534E+03   -0.23537E+01   -0.23493E+01  1248   0.855E+00    0.821E+01
DAV:   6    -0.486111417085E+03   -0.80094E+02   -0.96392E+02  1160   0.117E+02    0.156E+02
DAV:   7    -0.374276792995E+03    0.11183E+03   -0.17553E+02  1128   0.630E+01    0.604E+01
DAV:   8    -0.415245659677E+03   -0.40969E+02   -0.15714E+02  1328   0.645E+01    0.148E+02
DAV:   9    -0.371824648340E+03    0.43421E+02   -0.10375E+02  1240   0.418E+01    0.621E+01
DAV:  10    -0.379581268138E+03   -0.77566E+01   -0.81819E+01  1368   0.380E+01    0.563E+01
DAV:  11    -0.384160064318E+03   -0.45788E+01   -0.34639E+01  1240   0.419E+01    0.752E+01
DAV:  12    -0.367467210265E+03    0.16693E+02   -0.33347E+01  1272   0.289E+01    0.357E+01
DAV:  13    -0.362897562011E+03    0.45696E+01   -0.17404E+01  1304   0.261E+01    0.302E+01
DAV:  14    -0.359978228166E+03    0.29193E+01   -0.96965E+00  1312   0.187E+01    0.248E+01
DAV:  15    -0.358937821643E+03    0.10404E+01   -0.47026E+00  1208   0.146E+01    0.188E+01
DAV:  16    -0.357890069547E+03    0.10478E+01   -0.11465E+00  1264   0.601E+00    0.145E+01
DAV:  17    -0.357549316770E+03    0.34075E+00   -0.36296E-01  1312   0.313E+00    0.136E+01
DAV:  18    -0.357154227765E+03    0.39509E+00   -0.36519E-01  1272   0.386E+00    0.123E+01
DAV:  19    -0.356842366373E+03    0.31186E+00   -0.16939E-01  1320   0.267E+00    0.105E+01
DAV:  20    -0.356616352851E+03    0.22601E+00   -0.21554E-01  1328   0.284E+00    0.920E+00
DAV:  21    -0.356392697970E+03    0.22365E+00   -0.23845E-01  1416   0.261E+00    0.723E+00
DAV:  22    -0.356291772113E+03    0.10093E+00   -0.15709E-01  1328   0.232E+00    0.606E+00
DAV:  23    -0.356200443113E+03    0.91329E-01   -0.12993E-01  1336   0.218E+00    0.430E+00
DAV:  24    -0.356195068497E+03    0.53746E-02   -0.10745E-01  1280   0.191E+00    0.435E+00
DAV:  25    -0.356149660838E+03    0.45408E-01   -0.15493E-01  1344   0.216E+00    0.297E+00
DAV:  26    -0.356134661777E+03    0.14999E-01   -0.10280E-01  1312   0.190E+00    0.221E+00
DAV:  27    -0.356142225081E+03   -0.75633E-02   -0.70018E-02  1320   0.159E+00    0.240E+00
DAV:  28    -0.356122786012E+03    0.19439E-01   -0.37126E-02  1216   0.134E+00    0.104E+00
DAV:  29    -0.356125593617E+03   -0.28076E-02   -0.19634E-02  1288   0.957E-01    0.115E+00
DAV:  30    -0.356121023486E+03    0.45701E-02   -0.10285E-02  1192   0.737E-01    0.517E-01
DAV:  31    -0.356121345129E+03   -0.32164E-03   -0.32592E-03  1280   0.366E-01    0.420E-01
DAV:  32    -0.356121117028E+03    0.22810E-03   -0.15884E-03  1072   0.280E-01    0.227E-01
DAV:  33    -0.356121359017E+03   -0.24199E-03   -0.74564E-04  1008   0.190E-01    0.228E-01
DAV:  34    -0.356121566762E+03   -0.20775E-03   -0.35955E-04   728   0.139E-01    0.929E-02
DAV:  35    -0.356121903336E+03   -0.33657E-03   -0.16394E-04   608   0.105E-01    0.121E-01
DAV:  36    -0.356122509403E+03   -0.60607E-03   -0.19345E-04   672   0.909E-02    0.707E-02
DAV:  37    -0.356122880552E+03   -0.37115E-03   -0.12045E-04   608   0.748E-02    0.929E-02
DAV:  38    -0.356123411657E+03   -0.53111E-03   -0.12739E-04   632   0.696E-02    0.660E-02
DAV:  39    -0.356123634334E+03   -0.22268E-03   -0.68072E-05   608   0.516E-02    0.593E-02
DAV:  40    -0.356124212692E+03   -0.57836E-03   -0.65005E-05   648   0.414E-02    0.380E-02
DAV:  41    -0.356124398501E+03   -0.18581E-03   -0.46782E-05   608   0.380E-02    0.397E-02
DAV:  42    -0.356124850046E+03   -0.45154E-03   -0.50790E-05   608   0.250E-02    0.309E-02
DAV:  43    -0.356125037616E+03   -0.18757E-03   -0.36346E-05   600   0.302E-02    0.356E-02
DAV:  44    -0.356125195444E+03   -0.15783E-03   -0.28602E-05   592   0.256E-02    0.225E-02
DAV:  45    -0.356125259879E+03   -0.64435E-04   -0.16732E-05   608   0.175E-02
   1 F= -.35612526E+03 E0= -.35560065E+03  d E =-.104921E+01
