LAMMPS (5 Jun 2019)
OMP_NUM_THREADS environment is not set. Defaulting to 1 thread. (../comm.cpp:88)
  using 1 OpenMP thread(s) per MPI task
Reading data file ...
  triclinic box = (0 0 0) to (10.0797 9.4251 20.5101) with tilt (3.5733 0 0)
  1 by 1 by 1 MPI processor grid
  reading atoms ...
  72 atoms
  read_data CPU = 0.000784878 secs
43 atoms in group bulk
WARNING: Using 'neigh_modify every 1 delay 0 check yes' setting during minimization (../min.cpp:168)
Neighbor list info ...
  update every 1 steps, delay 0 steps, check yes
  max neighbors/atom: 2000, page size: 100000
  master list distance cutoff = 8.5
  ghost atom cutoff = 8.5
  binsize = 4.25, bins = 4 3 5
  1 neighbor lists, perpetual/occasional/extra = 1 0 0
  (1) pair eam/alloy, perpetual
      attributes: half, newton on
      pair build: half/bin/newton/tri
      stencil: half/bin/3d/newton/tri
      bin: standard
Setting up cg style minimization ...
  Unit style    : metal
  Current step  : 0
Per MPI rank memory allocation (min/avg/max) = 4.115 | 4.115 | 4.115 Mbytes
Step Temp E_pair E_mol TotEng Press 
       0            0   -307.00276            0   -307.00276   -129443.34 
      52            0   -326.50051            0   -326.50051   -38082.825 
Loop time of 0.0334386 on 1 procs for 52 steps with 72 atoms

98.7% CPU use with 1 MPI tasks x 1 OpenMP threads

Minimization stats:
  Stopping criterion = energy tolerance
  Energy initial, next-to-last, final = 
        -307.002762229     -326.497319698     -326.500505663
  Force two-norm initial, final = 10.5935 0.211589
  Force max component initial, final = 3.13014 0.0632446
  Final line search alpha, max atom move = 0.756914 0.0478707
  Iterations, force evaluations = 52 72

MPI task timing breakdown:
Section |  min time  |  avg time  |  max time  |%varavg| %total
---------------------------------------------------------------
Pair    | 0.030493   | 0.030493   | 0.030493   |   0.0 | 91.19
Neigh   | 0.001629   | 0.001629   | 0.001629   |   0.0 |  4.87
Comm    | 0.00073146 | 0.00073146 | 0.00073146 |   0.0 |  2.19
Output  | 0          | 0          | 0          |   0.0 |  0.00
Modify  | 5.3473e-05 | 5.3473e-05 | 5.3473e-05 |   0.0 |  0.16
Other   |            | 0.0005321  |            |       |  1.59

Nlocal:    72 ave 72 max 72 min
Histogram: 1 0 0 0 0 0 0 0 0 0
Nghost:    953 ave 953 max 953 min
Histogram: 1 0 0 0 0 0 0 0 0 0
Neighs:    4837 ave 4837 max 4837 min
Histogram: 1 0 0 0 0 0 0 0 0 0

Total # of neighbors = 4837
Ave neighs/atom = 67.1806
Neighbor list builds = 3
Dangerous builds = 0
System init for write_data ...
Total wall time: 0:00:00
