"Millerite NiS"                         
           1
    16.884694    0.000000    0.000000
     0.000000    9.578410    0.000000
     0.000000    0.000000   16.169087
   Ty   Ty
  36  36
Direct configuration=     1
   0.78004631  0.14529695  0.12058499
   0.78688478  0.14536472  0.27913832
   0.21523550  0.61956118  0.09544078
   0.29733029  0.64529695  0.21596896
   0.38758978  0.12749749  0.12579143
   0.46975828  0.14529695  0.24776362
   0.95247430  0.64529695  0.15237965
   0.96832343  0.64530251  0.31447572
   0.12490229  0.14529695  0.18417431
   0.10007059  0.14454657  0.32536204
   0.57875280  0.64685849  0.15025834
   0.64218627  0.64529695  0.27955828
   0.91025264  0.00480006  0.11715563
   0.94476461  0.01207743  0.27144546
   0.35818219  0.64502560  0.05833449
   0.42486676  0.51319395  0.19076795
   0.53550117  0.15422857  0.10193368
   0.59729475  0.01319395  0.22256260
   0.08001077  0.51319395  0.12717863
   0.11282990  0.50122591  0.29115669
   0.25243876  0.01319395  0.15897329
   0.29610495  0.95548037  0.29548643
   0.77279186  0.43091687  0.11854871
   0.76972274  0.51319395  0.25435726
   0.90994893  0.28585266  0.11704557
   0.94466395  0.27847456  0.27139264
   0.41286884  0.88841896  0.05987947
   0.42486676  0.77739995  0.19076795
   0.49088841  0.81623972  0.31893650
   0.59729475  0.27739995  0.22256260
   0.08001077  0.77739995  0.12717863
   0.11289558  0.78976705  0.29114221
   0.25243876  0.27739995  0.15897329
   0.29146022  0.31771023  0.30541882
   0.77602065  0.85702939  0.11792053
   0.76972274  0.77739995  0.25435726
   0.98615716  0.14536705  0.36127953
   0.99146121  0.14529695  0.18240970
   0.47417723  0.64529695  0.08702573
   0.51332080  0.63115874  0.25937052
   0.65378276  0.14635523  0.13137618
   0.66745484  0.14822281  0.29683437
   0.11232947  0.64555722  0.03257444
   0.16388920  0.64529695  0.21420436
   0.28257167  0.14537123  0.06293840
   0.33631719  0.14529695  0.24599902
   0.81903321  0.64529695  0.15061505
   0.84675278  0.64543370  0.31983048
   0.81633617  0.29447802  0.03532474
   0.82906105  0.31351195  0.21449973
   0.31177708  0.81351195  0.11911576
   0.36755464  0.78534277  0.30509549
   0.46671804  0.30681845  0.15504569
   0.51781410  0.30585524  0.31465337
   0.00148905  0.81351195  0.24629439
   0.96761092  0.82150529  0.07927611
   0.14085258  0.32347028  0.10987962
   0.17391704  0.31351195  0.27808905
   0.65663306  0.81351195  0.18270508
   0.69349175  0.79441440  0.35059578
   0.31177708  0.47708195  0.11911576
   0.35096160  0.49805067  0.29286337
   0.81685324  0.99688385  0.03509026
   0.82906105  0.97708195  0.21449973
   0.00148905  0.47708195  0.24629439
   0.96746008  0.46901427  0.07928995
   0.48420507  0.97708195  0.15091042
   0.52788438  0.01364651  0.33012201
   0.65663306  0.47708195  0.18270508
   0.69455026  0.49830154  0.35101180
   0.13955720  0.96855558  0.11040797
   0.17391704  0.97708195  0.27808905
