<?xml version="1.0" encoding="ISO-8859-1"?>
<modeling>
 <generator>
  <i name="program" type="string">vasp </i>
  <i name="version" type="string">5.4.4.18Apr17-6-g9f103f2a35  </i>
  <i name="subversion" type="string">(build Aug 13 2019 17:33:20) gamma-only         parallel </i>
  <i name="platform" type="string">LinuxIFC </i>
  <i name="date" type="string">2020 05 12 </i>
  <i name="time" type="string">20:18:08 </i>
 </generator>
 <incar>
  <i type="string" name="SYSTEM">"Millerite NiS"</i>
  <i type="string" name="PREC">normal</i>
  <i type="int" name="NSIM">     4</i>
  <i type="int" name="NELM">   100</i>
  <i name="ENCUT">    450.00000000</i>
  <i type="string" name="LREAL">A</i>
  <i type="int" name="ISMEAR">     0</i>
  <i type="int" name="NWRITE">     2</i>
  <i type="logical" name="LWAVE"> F  </i>
  <i type="logical" name="LCHARG"> F  </i>
  <v type="int" name="KPOINT_BSE">    -1     0     0     0</v>
  <i type="int" name="NELM">   100</i>
 </incar>
 <structure name="primitive_cell" >
  <crystal>
   <varray name="basis" >
    <v>      10.07973298       0.00000000       0.00000000 </v>
    <v>       3.57329804       9.42510255       0.00000000 </v>
    <v>       0.00000000       0.00000000      20.68350356 </v>
   </varray>
   <i name="volume">   1964.98490008 </i>
   <varray name="rec_basis" >
    <v>       0.09920898      -0.03761267       0.00000000 </v>
    <v>       0.00000000       0.10609964       0.00000000 </v>
    <v>       0.00000000       0.00000000       0.04834771 </v>
   </varray>
  </crystal>
  <varray name="positions" >
   <v>       0.31317830      -0.05352055       0.06550314 </v>
   <v>      -0.49804594      -0.21563942       0.04721477 </v>
   <v>       0.30255546       0.02257655       0.15955891 </v>
   <v>       0.16450513       0.14487321       0.04313326 </v>
   <v>       0.22310860      -0.20181127       0.09836451 </v>
   <v>       0.45750777       0.06106227       0.05760019 </v>
   <v>      -0.46974665      -0.09975568       0.12767746 </v>
   <v>       0.45151724      -0.31849952       0.12296410 </v>
   <v>       0.29861738       0.22672664       0.10217432 </v>
   <v>       0.07411322       0.18702479       0.13571184 </v>
   <v>      -0.06349261       0.06429585       0.12893250 </v>
   <v>       0.01537355      -0.15669620       0.14448666 </v>
   <v>       0.44888589       0.07645812       0.22911134 </v>
   <v>      -0.35643262      -0.31067323       0.17003336 </v>
   <v>       0.05775976       0.35716533       0.04378140 </v>
   <v>       0.35047896      -0.35868028       0.20265741 </v>
   <v>       0.22438173       0.03675628       0.26264887 </v>
   <v>      -0.36152017       0.01811427       0.17564838 </v>
   <v>       0.06986647      -0.07497112       0.24457667 </v>
   <v>       0.35311030       0.30845171       0.20226433 </v>
   <v>       0.45282398      -0.12769196       0.28649593 </v>
   <v>       0.19115838       0.45253167       0.07670290 </v>
   <v>       0.33757154       0.48413694       0.13761037 </v>
   <v>      -0.43909497       0.45646417       0.12731676 </v>
   <v>       0.11381506       0.41152895       0.16924937 </v>
   <v>      -0.22511751      -0.00360240       0.09797436 </v>
   <v>       0.06723514       0.25789688       0.24496976 </v>
   <v>      -0.45267260      -0.35531672       0.25387405 </v>
   <v>      -0.08303338       0.40816539       0.11803273 </v>
   <v>      -0.20913061      -0.19639804       0.17802418 </v>
   <v>      -0.13095688      -0.21057777       0.07493423 </v>
   <v>       0.16564206      -0.30696471       0.27142369 </v>
   <v>      -0.16942877       0.02810611       0.21156171 </v>
   <v>       0.26408357       0.26126044       0.29618639 </v>
   <v>       0.01931164      -0.36084629       0.20187125 </v>
   <v>      -0.02265654      -0.40815706       0.10401310 </v>
   <v>      -0.26787028       0.45988096       0.18679900 </v>
   <v>      -0.49237444       0.42017912       0.22033653 </v>
   <v>      -0.49662119       0.15818320       0.32920136 </v>
   <v>      -0.21600869      -0.12552596       0.28728210 </v>
   <v>       0.21750365       0.10762837       0.37190678 </v>
   <v>      -0.40084560      -0.07381039       0.35604837 </v>
   <v>      -0.26393219       0.25573088       0.24418359 </v>
   <v>       0.22013498      -0.22523964       0.37151370 </v>
   <v>      -0.01916025      -0.12216240       0.33849873 </v>
   <v>       0.37465025      -0.11351223       0.38958589 </v>
   <v>      -0.21337736      -0.45839396       0.28688902 </v>
   <v>      -0.11760177       0.30961245       0.31373603 </v>
   <v>      -0.49925252       0.49105120       0.32959444 </v>
   <v>      -0.05886210      -0.34666656       0.30496121 </v>
   <v>       0.16958015       0.48888520       0.32880827 </v>
   <v>      -0.11366368       0.10546236       0.37112062 </v>
   <v>       0.41435209       0.11099193       0.42312341 </v>
   <v>      -0.39690751      -0.27796048       0.41343296 </v>
   <v>       0.31591057      -0.45723323       0.39836071 </v>
   <v>       0.02470031       0.16544508       0.42566520 </v>
   <v>      -0.34210593       0.26991061       0.34727355 </v>
   <v>      -0.30240408       0.49441476       0.38081107 </v>
   <v>       0.29166414       0.35126188       0.43020058 </v>
   <v>       0.09823743      -0.21695630       0.45141618 </v>
   <v>      -0.36728427       0.03063745       0.44209778 </v>
   <v>      -0.06310885       0.39133753       0.41382604 </v>
   <v>       0.40164486      -0.05908041       0.48125976 </v>
   <v>       0.43432059      -0.27666651       0.47374784 </v>
   <v>      -0.06574018      -0.27579447       0.41421912 </v>
   <v>      -0.26607557      -0.18268560       0.45189802 </v>
   <v>       0.08378074      -0.49076700       0.41856340 </v>
   <v>       0.00098337      -0.00180135       0.48069033 </v>
   <v>       0.28352156      -0.36362584       0.48821320 </v>
   <v>      -0.21113829       0.12262722       0.45832555 </v>
   <v>      -0.34871857       0.34011360       0.44115946 </v>
   <v>      -0.17331204       0.34451710       0.48479845 </v>
  </varray>
 </structure>
 <varray name="primitive_index" >
  <v type="int" >        1 </v>
  <v type="int" >       49 </v>
  <v type="int" >       42 </v>
  <v type="int" >       41 </v>
  <v type="int" >       61 </v>
  <v type="int" >       69 </v>
  <v type="int" >       23 </v>
  <v type="int" >        2 </v>
  <v type="int" >       29 </v>
  <v type="int" >       17 </v>
  <v type="int" >       60 </v>
  <v type="int" >       33 </v>
  <v type="int" >       30 </v>
  <v type="int" >       50 </v>
  <v type="int" >       21 </v>
  <v type="int" >       62 </v>
  <v type="int" >       18 </v>
  <v type="int" >       70 </v>
  <v type="int" >       57 </v>
  <v type="int" >       54 </v>
  <v type="int" >       43 </v>
  <v type="int" >       53 </v>
  <v type="int" >       13 </v>
  <v type="int" >       38 </v>
  <v type="int" >        6 </v>
  <v type="int" >       36 </v>
  <v type="int" >       65 </v>
  <v type="int" >        3 </v>
  <v type="int" >       68 </v>
  <v type="int" >       24 </v>
  <v type="int" >       48 </v>
  <v type="int" >       34 </v>
  <v type="int" >       11 </v>
  <v type="int" >        7 </v>
  <v type="int" >       45 </v>
  <v type="int" >        9 </v>
  <v type="int" >       27 </v>
  <v type="int" >       14 </v>
  <v type="int" >       55 </v>
  <v type="int" >       71 </v>
  <v type="int" >       66 </v>
  <v type="int" >       31 </v>
  <v type="int" >       39 </v>
  <v type="int" >       58 </v>
  <v type="int" >       12 </v>
  <v type="int" >       19 </v>
  <v type="int" >       51 </v>
  <v type="int" >       28 </v>
  <v type="int" >       63 </v>
  <v type="int" >       25 </v>
  <v type="int" >       46 </v>
  <v type="int" >       40 </v>
  <v type="int" >        8 </v>
  <v type="int" >       44 </v>
  <v type="int" >       35 </v>
  <v type="int" >       26 </v>
  <v type="int" >       15 </v>
  <v type="int" >        4 </v>
  <v type="int" >       47 </v>
  <v type="int" >       10 </v>
  <v type="int" >       56 </v>
  <v type="int" >       52 </v>
  <v type="int" >       67 </v>
  <v type="int" >       20 </v>
  <v type="int" >       72 </v>
  <v type="int" >       32 </v>
  <v type="int" >       22 </v>
  <v type="int" >       37 </v>
  <v type="int" >       59 </v>
  <v type="int" >       16 </v>
  <v type="int" >       64 </v>
  <v type="int" >        5 </v>
 </varray>
 <kpoints>
  <generation param="Gamma">
   <v type="int" name="divisions">       1        1        1 </v>
   <v name="usershift">      0.00000000       0.00000000       0.00000000 </v>
   <v name="genvec1">      1.00000000      -0.00000000       0.00000000 </v>
   <v name="genvec2">      0.00000000       1.00000000       0.00000000 </v>
   <v name="genvec3">      0.00000000       0.00000000       1.00000000 </v>
   <v name="shift">      0.00000000       0.00000000       0.00000000 </v>
  </generation>
  <varray name="kpointlist" >
   <v>       0.00000000       0.00000000       0.00000000 </v>
  </varray>
  <varray name="weights" >
   <v>       1.00000000 </v>
  </varray>
 </kpoints>
 <parameters>
  <separator name="general" >
   <i type="string" name="SYSTEM">"Millerite NiS"</i>
   <i type="logical" name="LCOMPAT"> F  </i>
  </separator>
  <separator name="electronic" >
   <i type="string" name="PREC">normal</i>
   <i name="ENMAX">    450.00000000</i>
   <i name="ENAUG">    703.44300000</i>
   <i name="EDIFF">      0.00010000</i>
   <i type="int" name="IALGO">    38</i>
   <i type="int" name="IWAVPR">    10</i>
   <i type="int" name="NBANDS">   476</i>
   <i name="NELECT">    792.00000000</i>
   <i type="int" name="TURBO">     0</i>
   <i type="int" name="IRESTART">     0</i>
   <i type="int" name="NREBOOT">     0</i>
   <i type="int" name="NMIN">     0</i>
   <i name="EREF">      0.00000000</i>
   <separator name="electronic smearing" >
    <i type="int" name="ISMEAR">     0</i>
    <i name="SIGMA">      0.20000000</i>
    <i name="KSPACING">      0.50000000</i>
    <i type="logical" name="KGAMMA"> T  </i>
   </separator>
   <separator name="electronic projectors" >
    <i type="logical" name="LREAL"> T  </i>
    <v name="ROPT">     -0.00050000     -0.00050000</v>
    <i type="int" name="LMAXPAW">  -100</i>
    <i type="int" name="LMAXMIX">     2</i>
    <i type="logical" name="NLSPLINE"> F  </i>
   </separator>
   <separator name="electronic startup" >
    <i type="int" name="ISTART">     0</i>
    <i type="int" name="ICHARG">     2</i>
    <i type="int" name="INIWAV">     1</i>
   </separator>
   <separator name="electronic spin" >
    <i type="int" name="ISPIN">     1</i>
    <i type="logical" name="LNONCOLLINEAR"> F  </i>
    <v name="MAGMOM">      1.00000000      1.00000000      1.00000000      1.00000000      1.00000000      1.00000000      1.00000000      1.00000000      1.00000000      1.00000000      1.00000000      1.00000000      1.00000000      1.00000000      1.00000000      1.00000000      1.00000000      1.00000000      1.00000000      1.00000000
      1.00000000      1.00000000      1.00000000      1.00000000      1.00000000      1.00000000      1.00000000      1.00000000      1.00000000      1.00000000      1.00000000      1.00000000      1.00000000      1.00000000      1.00000000      1.00000000      1.00000000      1.00000000      1.00000000      1.00000000
      1.00000000      1.00000000      1.00000000      1.00000000      1.00000000      1.00000000      1.00000000      1.00000000      1.00000000      1.00000000      1.00000000      1.00000000      1.00000000      1.00000000      1.00000000      1.00000000      1.00000000      1.00000000      1.00000000      1.00000000
      1.00000000      1.00000000      1.00000000      1.00000000      1.00000000      1.00000000      1.00000000      1.00000000      1.00000000      1.00000000      1.00000000      1.00000000</v>
    <i name="NUPDOWN">     -1.00000000</i>
    <i type="logical" name="LSORBIT"> F  </i>
    <v name="SAXIS">      0.00000000      0.00000000      1.00000000</v>
    <i type="logical" name="LSPIRAL"> F  </i>
    <v name="QSPIRAL">      0.00000000      0.00000000      0.00000000</v>
    <i type="logical" name="LZEROZ"> F  </i>
   </separator>
   <separator name="electronic exchange-correlation" >
    <i type="logical" name="LASPH"> F  </i>
    <i type="logical" name="LMETAGGA"> F  </i>
   </separator>
   <separator name="electronic convergence" >
    <i type="int" name="NELM">   100</i>
    <i type="int" name="NELMDL">    -5</i>
    <i type="int" name="NELMIN">     2</i>
    <i name="ENINI">    450.00000000</i>
    <separator name="electronic convergence detail" >
     <i type="logical" name="LDIAG"> T  </i>
     <i type="logical" name="LSUBROT"> F  </i>
     <i name="WEIMIN">      0.00000000</i>
     <i name="EBREAK">      0.00000005</i>
     <i name="DEPER">      0.30000000</i>
     <i type="int" name="NRMM">     4</i>
     <i name="TIME">      0.40000000</i>
    </separator>
   </separator>
   <separator name="electronic mixer" >
    <i name="AMIX">      0.40000000</i>
    <i name="BMIX">      1.00000000</i>
    <i name="AMIN">      0.10000000</i>
    <i name="AMIX_MAG">      1.60000000</i>
    <i name="BMIX_MAG">      1.00000000</i>
    <separator name="electronic mixer details" >
     <i type="int" name="IMIX">     4</i>
     <i type="logical" name="MIXFIRST"> F  </i>
     <i type="int" name="MAXMIX">   -45</i>
     <i name="WC">    100.00000000</i>
     <i type="int" name="INIMIX">     1</i>
     <i type="int" name="MIXPRE">     1</i>
     <i type="int" name="MREMOVE">     5</i>
    </separator>
   </separator>
   <separator name="electronic dipolcorrection" >
    <i type="logical" name="LDIPOL"> F  </i>
    <i type="logical" name="LMONO"> F  </i>
    <i type="int" name="IDIPOL">     0</i>
    <i name="EPSILON">      1.00000000</i>
    <v name="DIPOL">   -100.00000000   -100.00000000   -100.00000000</v>
    <i name="EFIELD">      0.00000000</i>
   </separator>
  </separator>
  <separator name="grids" >
   <i type="int" name="NGX">    54</i>
   <i type="int" name="NGY">    54</i>
   <i type="int" name="NGZ">   108</i>
   <i type="int" name="NGXF">   108</i>
   <i type="int" name="NGYF">   108</i>
   <i type="int" name="NGZF">   216</i>
   <i type="logical" name="ADDGRID"> F  </i>
  </separator>
  <separator name="ionic" >
   <i type="int" name="NSW">     0</i>
   <i type="int" name="IBRION">    -1</i>
   <i type="int" name="MDALGO">     0</i>
   <i type="int" name="ISIF">     2</i>
   <i name="PSTRESS">      0.00000000</i>
   <i name="EDIFFG">      0.00100000</i>
   <i type="int" name="NFREE">     0</i>
   <i name="POTIM">      0.50000000</i>
   <i name="SMASS">     -3.00000000</i>
   <i name="SCALEE">      1.00000000</i>
  </separator>
  <separator name="ionic md" >
   <i name="TEBEG">      0.00010000</i>
   <i name="TEEND">      0.00010000</i>
   <i type="int" name="NBLOCK">     1</i>
   <i type="int" name="KBLOCK">     1</i>
   <i type="int" name="NPACO">   256</i>
   <i name="APACO">     16.00000000</i>
  </separator>
  <separator name="symmetry" >
   <i type="int" name="ISYM">     2</i>
   <i name="SYMPREC">      0.00001000</i>
  </separator>
  <separator name="dos" >
   <i type="int" name="LORBIT">     0</i>
   <v name="RWIGS">     -1.00000000     -1.00000000</v>
   <i type="int" name="NEDOS">   301</i>
   <i name="EMIN">     10.00000000</i>
   <i name="EMAX">    -10.00000000</i>
   <i name="EFERMI">      0.00000000</i>
  </separator>
  <separator name="writing" >
   <i type="int" name="NWRITE">     2</i>
   <i type="logical" name="LWAVE"> F  </i>
   <i type="logical" name="LDOWNSAMPLE"> F  </i>
   <i type="logical" name="LCHARG"> F  </i>
   <i type="logical" name="LPARD"> F  </i>
   <i type="logical" name="LVTOT"> F  </i>
   <i type="logical" name="LVHAR"> F  </i>
   <i type="logical" name="LELF"> F  </i>
   <i type="logical" name="LOPTICS"> F  </i>
   <v name="STM">      0.00000000      0.00000000      0.00000000      0.00000000      0.00000000      0.00000000      0.00000000</v>
  </separator>
  <separator name="performance" >
   <i type="int" name="NPAR">     2</i>
   <i type="int" name="NSIM">     4</i>
   <i type="int" name="NBLK">    -1</i>
   <i type="logical" name="LPLANE"> T  </i>
   <i type="logical" name="LSCALAPACK"> T  </i>
   <i type="logical" name="LSCAAWARE"> F  </i>
   <i type="logical" name="LSCALU"> F  </i>
   <i type="logical" name="LASYNC"> F  </i>
   <i type="logical" name="LORBITALREAL"> F  </i>
  </separator>
  <separator name="miscellaneous" >
   <i type="int" name="IDIOT">     3</i>
   <i type="int" name="ISPECIAL">     0</i>
   <i type="logical" name="LMUSIC"> F  </i>
   <v name="POMASS">     58.69000000     32.06600000</v>
   <v name="DARWINR">      0.00000000      0.00000000</v>
   <v name="DARWINV">      1.00000000      1.00000000</v>
   <i type="logical" name="LCORR"> T  </i>
  </separator>
  <i type="logical" name="GGA_COMPAT"> T  </i>
  <i type="logical" name="LBERRY"> F  </i>
  <i type="int" name="ICORELEVEL">     0</i>
  <i type="logical" name="LDAU"> F  </i>
  <i type="int" name="I_CONSTRAINED_M">     0</i>
  <separator name="electronic exchange-correlation" >
   <i type="string" name="GGA">--</i>
   <i type="int" name="VOSKOWN">     0</i>
   <i type="logical" name="LHFCALC"> F  </i>
   <i type="string" name="PRECFOCK"></i>
   <i type="logical" name="LSYMGRAD"> F  </i>
   <i type="logical" name="LHFONE"> F  </i>
   <i type="logical" name="LRHFCALC"> F  </i>
   <i type="logical" name="LTHOMAS"> F  </i>
   <i type="logical" name="LMODELHF"> F  </i>
   <i name="ENCUT4O">     -1.00000000</i>
   <i type="int" name="EXXOEP">     0</i>
   <i type="int" name="FOURORBIT">     0</i>
   <i name="AEXX">      0.00000000</i>
   <i name="HFALPHA">      0.00000000</i>
   <i name="MCALPHA">      0.00000000</i>
   <i name="ALDAX">      1.00000000</i>
   <i name="AGGAX">      1.00000000</i>
   <i name="ALDAC">      1.00000000</i>
   <i name="AGGAC">      1.00000000</i>
   <i type="int" name="NKREDX">     1</i>
   <i type="int" name="NKREDY">     1</i>
   <i type="int" name="NKREDZ">     1</i>
   <i type="logical" name="SHIFTRED"> F  </i>
   <i type="logical" name="ODDONLY"> F  </i>
   <i type="logical" name="EVENONLY"> F  </i>
   <i type="int" name="LMAXFOCK">     0</i>
   <i type="int" name="NMAXFOCKAE">     0</i>
   <i type="logical" name="LFOCKAEDFT"> F  </i>
   <i name="HFSCREEN">      0.00000000</i>
   <i name="HFSCREENC">      0.00000000</i>
   <i type="int" name="NBANDSGWLOW">     0</i>
  </separator>
  <separator name="vdW DFT" >
   <i type="logical" name="LUSE_VDW"> F  </i>
   <i name="Zab_VDW">     -0.84910000</i>
   <i name="PARAM1">      0.12340000</i>
   <i name="PARAM2">      1.00000000</i>
   <i name="PARAM3">      0.00000000</i>
  </separator>
  <separator name="model GW" >
   <i type="int" name="MODEL_GW">     0</i>
   <i name="MODEL_EPS0">     16.37487417</i>
   <i name="MODEL_ALPHA">      1.00000000</i>
  </separator>
  <separator name="linear response parameters" >
   <i type="logical" name="LEPSILON"> F  </i>
   <i type="logical" name="LRPA"> F  </i>
   <i type="logical" name="LNABLA"> F  </i>
   <i type="logical" name="LVEL"> F  </i>
   <i type="int" name="KINTER">     0</i>
   <i name="CSHIFT">      0.10000000</i>
   <i name="OMEGAMAX">     -1.00000000</i>
   <i name="DEG_THRESHOLD">      0.00200000</i>
   <i name="RTIME">     -0.10000000</i>
   <i name="WPLASMAI">      0.00000000</i>
   <v name="DFIELD">      0.00000000      0.00000000      0.00000000</v>
   <v name="WPLASMA">      0.00000000      0.00000000      0.00000000      0.00000000      0.00000000      0.00000000      0.00000000      0.00000000      0.00000000</v>
  </separator>
  <separator name="orbital magnetization" >
   <i type="logical" name="NUCIND"> F  </i>
   <v name="MAGPOS">      0.00000000      0.00000000      0.00000000</v>
   <i type="logical" name="LNICSALL"> T  </i>
   <i type="logical" name="ORBITALMAG"> F  </i>
   <i type="logical" name="LMAGBLOCH"> F  </i>
   <i type="logical" name="LCHIMAG"> F  </i>
   <i type="logical" name="LGAUGE"> T  </i>
   <i type="int" name="MAGATOM">     0</i>
   <v name="MAGDIPOL">      0.00000000      0.00000000      0.00000000</v>
   <v name="AVECCONST">      0.00000000      0.00000000      0.00000000</v>
  </separator>
  <separator name="response functions" >
   <i type="logical" name="LADDER"> F  </i>
   <i type="logical" name="LRPAFORCE"> F  </i>
   <i type="logical" name="LFXC"> F  </i>
   <i type="logical" name="LHARTREE"> T  </i>
   <i type="int" name="IBSE">     0</i>
   <v type="int" name="KPOINT">    -1     0     0     0</v>
   <i type="logical" name="LTCTE"> F  </i>
   <i type="logical" name="LTETE"> F  </i>
   <i type="logical" name="LTRIPLET"> F  </i>
   <i type="logical" name="LFXCEPS"> F  </i>
   <i type="logical" name="LFXHEG"> F  </i>
   <i type="int" name="NATURALO">     2</i>
   <i type="logical" name="L2ORDER"> F  </i>
   <i type="logical" name="LMP2LT"> F  </i>
   <i type="logical" name="LUSEW"> F  </i>
   <i name="ENCUTGW">     -2.00000000</i>
   <i name="ENCUTGWSOFT">     -2.00000000</i>
   <i name="ENCUTLF">     -1.00000000</i>
   <i type="int" name="LMAXMP2">    -1</i>
   <i name="SCISSOR">      0.00000000</i>
   <i type="int" name="NOMEGA">     0</i>
   <i type="int" name="NOMEGAR">     0</i>
   <i type="int" name="NBANDSGW">    -1</i>
   <i type="int" name="NBANDSO">    -1</i>
   <i type="int" name="NBANDSV">    -1</i>
   <i type="int" name="NELM">   100</i>
   <i type="int" name="NELMHF">     1</i>
   <i type="int" name="DIM">     3</i>
   <i type="int" name="ANTIRES">     0</i>
   <i name="OMEGAMAX">    -30.00000000</i>
   <i name="OMEGAMIN">    -30.00000000</i>
   <i name="OMEGATL">   -200.00000000</i>
   <i type="int" name="OMEGAGRID">   140</i>
   <i name="CSHIFT">     -0.10000000</i>
   <i type="logical" name="SELFENERGY"> F  </i>
   <i type="logical" name="LSPECTRAL"> F  </i>
   <i type="logical" name="LSPECTRALGW"> F  </i>
   <i type="logical" name="LSINGLES"> F  </i>
   <i type="logical" name="LFERMIGW"> F  </i>
   <i type="logical" name="ODDONLYGW"> F  </i>
   <i type="logical" name="EVENONLYGW"> F  </i>
   <i type="int" name="NKREDLFX">     1</i>
   <i type="int" name="NKREDLFY">     1</i>
   <i type="int" name="NKREDLFZ">     1</i>
   <i type="int" name="MAXMEM">  2800</i>
   <i type="int" name="TELESCOPE">     0</i>
   <i type="int" name="TAUPAR">     1</i>
   <i type="int" name="OMEGAPAR">    -1</i>
   <i name="LAMBDA">      1.00000000</i>
  </separator>
  <separator name="External order field" >
   <i name="OFIELD_KAPPA">      0.00000000</i>
   <v name="OFIELD_K">      0.00000000      0.00000000      0.00000000</v>
   <i name="OFIELD_Q6_NEAR">      0.00000000</i>
   <i name="OFIELD_Q6_FAR">      0.00000000</i>
   <i name="OFIELD_A">      0.00000000</i>
  </separator>
 </parameters>
 <atominfo>
  <atoms>      72 </atoms>
  <types>       2 </types>
  <array name="atoms" >
   <dimension dim="1">ion</dimension>
   <field type="string">element</field>
   <field type="int">atomtype</field>
   <set>
    <rc><c>Ni</c><c>   1</c></rc>
    <rc><c>Ni</c><c>   1</c></rc>
    <rc><c>Ni</c><c>   1</c></rc>
    <rc><c>Ni</c><c>   1</c></rc>
    <rc><c>Ni</c><c>   1</c></rc>
    <rc><c>Ni</c><c>   1</c></rc>
    <rc><c>Ni</c><c>   1</c></rc>
    <rc><c>Ni</c><c>   1</c></rc>
    <rc><c>Ni</c><c>   1</c></rc>
    <rc><c>Ni</c><c>   1</c></rc>
    <rc><c>Ni</c><c>   1</c></rc>
    <rc><c>Ni</c><c>   1</c></rc>
    <rc><c>Ni</c><c>   1</c></rc>
    <rc><c>Ni</c><c>   1</c></rc>
    <rc><c>Ni</c><c>   1</c></rc>
    <rc><c>Ni</c><c>   1</c></rc>
    <rc><c>Ni</c><c>   1</c></rc>
    <rc><c>Ni</c><c>   1</c></rc>
    <rc><c>Ni</c><c>   1</c></rc>
    <rc><c>Ni</c><c>   1</c></rc>
    <rc><c>Ni</c><c>   1</c></rc>
    <rc><c>Ni</c><c>   1</c></rc>
    <rc><c>Ni</c><c>   1</c></rc>
    <rc><c>Ni</c><c>   1</c></rc>
    <rc><c>Ni</c><c>   1</c></rc>
    <rc><c>Ni</c><c>   1</c></rc>
    <rc><c>Ni</c><c>   1</c></rc>
    <rc><c>Ni</c><c>   1</c></rc>
    <rc><c>Ni</c><c>   1</c></rc>
    <rc><c>Ni</c><c>   1</c></rc>
    <rc><c>Ni</c><c>   1</c></rc>
    <rc><c>Ni</c><c>   1</c></rc>
    <rc><c>Ni</c><c>   1</c></rc>
    <rc><c>Ni</c><c>   1</c></rc>
    <rc><c>Ni</c><c>   1</c></rc>
    <rc><c>Ni</c><c>   1</c></rc>
    <rc><c>S </c><c>   2</c></rc>
    <rc><c>S </c><c>   2</c></rc>
    <rc><c>S </c><c>   2</c></rc>
    <rc><c>S </c><c>   2</c></rc>
    <rc><c>S </c><c>   2</c></rc>
    <rc><c>S </c><c>   2</c></rc>
    <rc><c>S </c><c>   2</c></rc>
    <rc><c>S </c><c>   2</c></rc>
    <rc><c>S </c><c>   2</c></rc>
    <rc><c>S </c><c>   2</c></rc>
    <rc><c>S </c><c>   2</c></rc>
    <rc><c>S </c><c>   2</c></rc>
    <rc><c>S </c><c>   2</c></rc>
    <rc><c>S </c><c>   2</c></rc>
    <rc><c>S </c><c>   2</c></rc>
    <rc><c>S </c><c>   2</c></rc>
    <rc><c>S </c><c>   2</c></rc>
    <rc><c>S </c><c>   2</c></rc>
    <rc><c>S </c><c>   2</c></rc>
    <rc><c>S </c><c>   2</c></rc>
    <rc><c>S </c><c>   2</c></rc>
    <rc><c>S </c><c>   2</c></rc>
    <rc><c>S </c><c>   2</c></rc>
    <rc><c>S </c><c>   2</c></rc>
    <rc><c>S </c><c>   2</c></rc>
    <rc><c>S </c><c>   2</c></rc>
    <rc><c>S </c><c>   2</c></rc>
    <rc><c>S </c><c>   2</c></rc>
    <rc><c>S </c><c>   2</c></rc>
    <rc><c>S </c><c>   2</c></rc>
    <rc><c>S </c><c>   2</c></rc>
    <rc><c>S </c><c>   2</c></rc>
    <rc><c>S </c><c>   2</c></rc>
    <rc><c>S </c><c>   2</c></rc>
    <rc><c>S </c><c>   2</c></rc>
    <rc><c>S </c><c>   2</c></rc>
   </set>
  </array>
  <array name="atomtypes" >
   <dimension dim="1">type</dimension>
   <field type="int">atomspertype</field>
   <field type="string">element</field>
   <field>mass</field>
   <field>valence</field>
   <field type="string">pseudopotential</field>
   <set>
    <rc><c>  36</c><c>Ni</c><c>     58.69000000</c><c>     16.00000000</c><c>  PAW_PBE Ni_pv 06Sep2000               </c></rc>
    <rc><c>  36</c><c>S </c><c>     32.06600000</c><c>      6.00000000</c><c>  PAW_PBE S 06Sep2000                   </c></rc>
   </set>
  </array>
 </atominfo>
 <structure name="initialpos" >
  <crystal>
   <varray name="basis" >
    <v>      10.07973298       0.00000000       0.00000000 </v>
    <v>       3.57329804       9.42510255       0.00000000 </v>
    <v>       0.00000000       0.00000000      20.68350356 </v>
   </varray>
   <i name="volume">   1964.98490008 </i>
   <varray name="rec_basis" >
    <v>       0.09920898      -0.03761267       0.00000000 </v>
    <v>       0.00000000       0.10609964       0.00000000 </v>
    <v>       0.00000000       0.00000000       0.04834771 </v>
   </varray>
  </crystal>
  <varray name="positions" >
   <v>       0.31317830       0.94647945       0.06550314 </v>
   <v>       0.45151724       0.68150048       0.12296410 </v>
   <v>       0.54732740       0.64468328       0.25387405 </v>
   <v>       0.69759592       0.49441476       0.38081107 </v>
   <v>       0.82668796       0.34451710       0.48479845 </v>
   <v>       0.11381506       0.41152895       0.16924937 </v>
   <v>       0.26408357       0.26126044       0.29618639 </v>
   <v>       0.41435209       0.11099193       0.42312341 </v>
   <v>       0.97734346       0.59184294       0.10401310 </v>
   <v>       0.09823743       0.78304370       0.45141618 </v>
   <v>       0.83057123       0.02810611       0.21156171 </v>
   <v>       0.98083975       0.87783760       0.33849873 </v>
   <v>       0.33757154       0.48413694       0.13761037 </v>
   <v>       0.50762556       0.42017912       0.22033653 </v>
   <v>       0.65789407       0.26991061       0.34727355 </v>
   <v>       0.78886171       0.12262722       0.45832555 </v>
   <v>       0.07411322       0.18702479       0.13571184 </v>
   <v>       0.22438173       0.03675628       0.26264887 </v>
   <v>       0.37465025       0.88648777       0.38958589 </v>
   <v>       0.43432059       0.72333349       0.47374784 </v>
   <v>       0.05775976       0.35716533       0.04378140 </v>
   <v>       0.08378074       0.50923300       0.41856340 </v>
   <v>       0.53025335       0.90024432       0.12767746 </v>
   <v>       0.79086939       0.80360196       0.17802418 </v>
   <v>       0.94113790       0.65333344       0.30496121 </v>
   <v>       0.02470031       0.16544508       0.42566520 </v>
   <v>       0.73212972       0.45988096       0.18679900 </v>
   <v>       0.88239823       0.30961245       0.31373603 </v>
   <v>       0.29861738       0.22672664       0.10217432 </v>
   <v>       0.44888589       0.07645812       0.22911134 </v>
   <v>       0.59915440       0.92618961       0.35604837 </v>
   <v>       0.73392443       0.81731440       0.45189802 </v>
   <v>       0.01537355       0.84330380       0.14448666 </v>
   <v>       0.16564206       0.69303529       0.27142369 </v>
   <v>       0.31591057       0.54276677       0.39836071 </v>
   <v>       0.77488249       0.99639760       0.09797436 </v>
   <v>       0.00098337       0.99819865       0.48069033 </v>
   <v>       0.56090503       0.45646417       0.12731676 </v>
   <v>       0.73606781       0.25573088       0.24418359 </v>
   <v>       0.88633632       0.10546236       0.37112062 </v>
   <v>       0.16450513       0.14487321       0.04313326 </v>
   <v>       0.30255546       0.02257655       0.15955891 </v>
   <v>       0.45282398       0.87230804       0.28649593 </v>
   <v>       0.60309249       0.72203952       0.41343296 </v>
   <v>       0.01931164       0.63915371       0.20187125 </v>
   <v>       0.16958015       0.48888520       0.32880827 </v>
   <v>       0.29166414       0.35126188       0.43020058 </v>
   <v>       0.86904312       0.78942223       0.07493423 </v>
   <v>       0.50195406       0.78436058       0.04721477 </v>
   <v>       0.64356738       0.68932677       0.17003336 </v>
   <v>       0.78662264       0.54160604       0.28688901 </v>
   <v>       0.93689115       0.39133753       0.41382604 </v>
   <v>       0.19115838       0.45253167       0.07670290 </v>
   <v>       0.35311030       0.30845171       0.20226433 </v>
   <v>       0.50337881       0.15818320       0.32920136 </v>
   <v>       0.63271573       0.03063745       0.44209778 </v>
   <v>       0.06986647       0.92502888       0.24457667 </v>
   <v>       0.22013498       0.77476036       0.37151370 </v>
   <v>       0.28352156       0.63637416       0.48821320 </v>
   <v>       0.93650739       0.06429585       0.12893250 </v>
   <v>       0.22310860       0.79818873       0.09836451 </v>
   <v>       0.35047896       0.64131972       0.20265741 </v>
   <v>       0.50074748       0.49105120       0.32959444 </v>
   <v>       0.65128143       0.34011360       0.44115946 </v>
   <v>       0.06723514       0.25789688       0.24496976 </v>
   <v>       0.21750365       0.10762837       0.37190678 </v>
   <v>       0.40164486       0.94091959       0.48125976 </v>
   <v>       0.91696662       0.40816539       0.11803273 </v>
   <v>       0.45750777       0.06106227       0.05760019 </v>
   <v>       0.63847983       0.01811427       0.17564838 </v>
   <v>       0.78399131       0.87447404       0.28728210 </v>
   <v>       0.93425982       0.72420553       0.41421912 </v>
  </varray>
 </structure>
 <calculation>
  <scstep>
   <time name="dav">    7.48    7.49</time>
   <time name="total">    7.83    7.84</time>
   <energy>
    <i name="alphaZ">   1893.09323658 </i>
    <i name="ewald"> 220144.46675181 </i>
    <i name="hartreedc">-342326.82283913 </i>
    <i name="XCdc">   3681.68752158 </i>
    <i name="pawpsdc"> 112729.53333415 </i>
    <i name="pawaedc">-117641.51188735 </i>
    <i name="eentropy">     -0.44020282 </i>
    <i name="bandstr">  -4560.78804924 </i>
    <i name="atom"> 136002.60505376 </i>
    <i name="e_fr_energy">   9921.82291934 </i>
    <i name="e_wo_entrp">   9922.26312216 </i>
    <i name="e_0_energy">   9922.04302075 </i>
   </energy>
  </scstep>
  <scstep>
   <time name="dav">    6.34    6.34</time>
   <time name="total">    6.34    6.34</time>
   <energy>
    <i name="e_fr_energy">    604.40137845 </i>
    <i name="e_wo_entrp">    605.24146704 </i>
    <i name="e_0_energy">    604.82142274 </i>
   </energy>
  </scstep>
  <scstep>
   <time name="dav">    6.43    6.43</time>
   <time name="total">    6.43    6.44</time>
   <energy>
    <i name="e_fr_energy">   -338.60400033 </i>
    <i name="e_wo_entrp">   -337.61660684 </i>
    <i name="e_0_energy">   -338.11030358 </i>
   </energy>
  </scstep>
  <scstep>
   <time name="dav">    6.58    6.58</time>
   <time name="total">    6.58    6.58</time>
   <energy>
    <i name="e_fr_energy">   -396.34297392 </i>
    <i name="e_wo_entrp">   -395.28459211 </i>
    <i name="e_0_energy">   -395.81378301 </i>
   </energy>
  </scstep>
  <scstep>
   <time name="dav">    7.48    7.48</time>
   <time name="total">    7.70    7.70</time>
   <energy>
    <i name="e_fr_energy">   -398.62325437 </i>
    <i name="e_wo_entrp">   -397.57451579 </i>
    <i name="e_0_energy">   -398.09888508 </i>
   </energy>
  </scstep>
  <scstep>
   <time name="dav">    6.95    6.95</time>
   <time name="total">    7.43    7.43</time>
   <energy>
    <i name="e_fr_energy">   -462.61265263 </i>
    <i name="e_wo_entrp">   -461.70099566 </i>
    <i name="e_0_energy">   -462.15682414 </i>
   </energy>
  </scstep>
  <scstep>
   <time name="dav">    6.48    6.48</time>
   <time name="total">    6.97    6.97</time>
   <energy>
    <i name="e_fr_energy">   -369.25589889 </i>
    <i name="e_wo_entrp">   -368.44036445 </i>
    <i name="e_0_energy">   -368.84813167 </i>
   </energy>
  </scstep>
  <scstep>
   <time name="dav">    7.26    7.26</time>
   <time name="total">    7.87    7.87</time>
   <energy>
    <i name="e_fr_energy">   -439.11211214 </i>
    <i name="e_wo_entrp">   -438.10688837 </i>
    <i name="e_0_energy">   -438.60950026 </i>
   </energy>
  </scstep>
  <scstep>
   <time name="dav">    7.04    7.04</time>
   <time name="total">    7.53    7.53</time>
   <energy>
    <i name="e_fr_energy">   -381.43898411 </i>
    <i name="e_wo_entrp">   -380.47337541 </i>
    <i name="e_0_energy">   -380.95617976 </i>
   </energy>
  </scstep>
  <scstep>
   <time name="dav">    7.92    7.93</time>
   <time name="total">    8.41    8.41</time>
   <energy>
    <i name="e_fr_energy">   -397.17795248 </i>
    <i name="e_wo_entrp">   -396.08018645 </i>
    <i name="e_0_energy">   -396.62906947 </i>
   </energy>
  </scstep>
  <scstep>
   <time name="dav">    7.14    7.14</time>
   <time name="total">    7.62    7.63</time>
   <energy>
    <i name="e_fr_energy">   -394.91980949 </i>
    <i name="e_wo_entrp">   -393.88168979 </i>
    <i name="e_0_energy">   -394.40074964 </i>
   </energy>
  </scstep>
  <scstep>
   <time name="dav">    7.82    7.82</time>
   <time name="total">    8.30    8.30</time>
   <energy>
    <i name="e_fr_energy">   -376.55656383 </i>
    <i name="e_wo_entrp">   -375.69208221 </i>
    <i name="e_0_energy">   -376.12432302 </i>
   </energy>
  </scstep>
  <scstep>
   <time name="dav">    7.32    7.32</time>
   <time name="total">    7.80    7.81</time>
   <energy>
    <i name="e_fr_energy">   -376.78304363 </i>
    <i name="e_wo_entrp">   -375.74421981 </i>
    <i name="e_0_energy">   -376.26363172 </i>
   </energy>
  </scstep>
  <scstep>
   <time name="dav">    7.65    7.66</time>
   <time name="total">    8.14    8.15</time>
   <energy>
    <i name="e_fr_energy">   -361.04069344 </i>
    <i name="e_wo_entrp">   -360.08817848 </i>
    <i name="e_0_energy">   -360.56443596 </i>
   </energy>
  </scstep>
  <scstep>
   <time name="dav">    7.57    7.57</time>
   <time name="total">    8.06    8.06</time>
   <energy>
    <i name="e_fr_energy">   -357.00336926 </i>
    <i name="e_wo_entrp">   -356.12400726 </i>
    <i name="e_0_energy">   -356.56368826 </i>
   </energy>
  </scstep>
  <scstep>
   <time name="dav">    7.80    7.81</time>
   <time name="total">    8.29    8.29</time>
   <energy>
    <i name="e_fr_energy">   -355.26440454 </i>
    <i name="e_wo_entrp">   -354.35023137 </i>
    <i name="e_0_energy">   -354.80731796 </i>
   </energy>
  </scstep>
  <scstep>
   <time name="dav">    7.22    7.22</time>
   <time name="total">    7.71    7.71</time>
   <energy>
    <i name="e_fr_energy">   -354.45914056 </i>
    <i name="e_wo_entrp">   -353.55491434 </i>
    <i name="e_0_energy">   -354.00702745 </i>
   </energy>
  </scstep>
  <scstep>
   <time name="dav">    7.69    7.69</time>
   <time name="total">    8.18    8.18</time>
   <energy>
    <i name="e_fr_energy">   -353.66794152 </i>
    <i name="e_wo_entrp">   -352.77867790 </i>
    <i name="e_0_energy">   -353.22330971 </i>
   </energy>
  </scstep>
  <scstep>
   <time name="dav">    7.48    7.48</time>
   <time name="total">    7.97    7.97</time>
   <energy>
    <i name="e_fr_energy">   -352.74737325 </i>
    <i name="e_wo_entrp">   -351.83487490 </i>
    <i name="e_0_energy">   -352.29112407 </i>
   </energy>
  </scstep>
  <scstep>
   <time name="dav">    8.05    8.05</time>
   <time name="total">    8.55    8.55</time>
   <energy>
    <i name="e_fr_energy">   -351.60432985 </i>
    <i name="e_wo_entrp">   -350.67897109 </i>
    <i name="e_0_energy">   -351.14165047 </i>
   </energy>
  </scstep>
  <scstep>
   <time name="dav">    7.53    7.53</time>
   <time name="total">    8.03    8.03</time>
   <energy>
    <i name="e_fr_energy">   -350.46607514 </i>
    <i name="e_wo_entrp">   -349.53470720 </i>
    <i name="e_0_energy">   -350.00039117 </i>
   </energy>
  </scstep>
  <scstep>
   <time name="dav">    7.15    7.15</time>
   <time name="total">    7.88    7.88</time>
   <energy>
    <i name="e_fr_energy">   -350.45289274 </i>
    <i name="e_wo_entrp">   -349.51701162 </i>
    <i name="e_0_energy">   -349.98495218 </i>
   </energy>
  </scstep>
  <scstep>
   <time name="dav">    6.84    6.84</time>
   <time name="total">    7.34    7.34</time>
   <energy>
    <i name="e_fr_energy">   -350.38629644 </i>
    <i name="e_wo_entrp">   -349.44845236 </i>
    <i name="e_0_energy">   -349.91737440 </i>
   </energy>
  </scstep>
  <scstep>
   <time name="dav">    8.05    8.05</time>
   <time name="total">    8.73    8.73</time>
   <energy>
    <i name="e_fr_energy">   -350.09357133 </i>
    <i name="e_wo_entrp">   -349.13603558 </i>
    <i name="e_0_energy">   -349.61480346 </i>
   </energy>
  </scstep>
  <scstep>
   <time name="dav">    7.75    7.76</time>
   <time name="total">    8.28    8.35</time>
   <energy>
    <i name="e_fr_energy">   -349.92782901 </i>
    <i name="e_wo_entrp">   -348.98303593 </i>
    <i name="e_0_energy">   -349.45543247 </i>
   </energy>
  </scstep>
  <scstep>
   <time name="dav">    7.57    7.57</time>
   <time name="total">    8.19    8.19</time>
   <energy>
    <i name="e_fr_energy">   -349.88805020 </i>
    <i name="e_wo_entrp">   -348.89746560 </i>
    <i name="e_0_energy">   -349.39275790 </i>
   </energy>
  </scstep>
  <scstep>
   <time name="dav">    6.54    6.54</time>
   <time name="total">    7.04    7.04</time>
   <energy>
    <i name="e_fr_energy">   -349.85748389 </i>
    <i name="e_wo_entrp">   -348.88448196 </i>
    <i name="e_0_energy">   -349.37098292 </i>
   </energy>
  </scstep>
  <scstep>
   <time name="dav">    6.85    6.85</time>
   <time name="total">    7.37    7.38</time>
   <energy>
    <i name="e_fr_energy">   -349.87096478 </i>
    <i name="e_wo_entrp">   -348.88801565 </i>
    <i name="e_0_energy">   -349.37949021 </i>
   </energy>
  </scstep>
  <scstep>
   <time name="dav">    7.11    7.11</time>
   <time name="total">    7.61    7.62</time>
   <energy>
    <i name="e_fr_energy">   -349.85518909 </i>
    <i name="e_wo_entrp">   -348.87916115 </i>
    <i name="e_0_energy">   -349.36717512 </i>
   </energy>
  </scstep>
  <scstep>
   <time name="dav">    7.44    7.44</time>
   <time name="total">    7.94    7.94</time>
   <energy>
    <i name="e_fr_energy">   -349.85414225 </i>
    <i name="e_wo_entrp">   -348.88229119 </i>
    <i name="e_0_energy">   -349.36821672 </i>
   </energy>
  </scstep>
  <scstep>
   <time name="dav">    6.89    6.89</time>
   <time name="total">    7.40    7.40</time>
   <energy>
    <i name="e_fr_energy">   -349.85250776 </i>
    <i name="e_wo_entrp">   -348.88058307 </i>
    <i name="e_0_energy">   -349.36654542 </i>
   </energy>
  </scstep>
  <scstep>
   <time name="dav">    6.57    6.57</time>
   <time name="total">    7.15    7.15</time>
   <energy>
    <i name="e_fr_energy">   -349.85285544 </i>
    <i name="e_wo_entrp">   -348.87972220 </i>
    <i name="e_0_energy">   -349.36628882 </i>
   </energy>
  </scstep>
  <scstep>
   <time name="dav">    6.42    6.42</time>
   <time name="total">    6.93    6.93</time>
   <energy>
    <i name="e_fr_energy">   -349.85265256 </i>
    <i name="e_wo_entrp">   -348.87973584 </i>
    <i name="e_0_energy">   -349.36619420 </i>
   </energy>
  </scstep>
  <scstep>
   <time name="dav">    4.79    4.79</time>
   <time name="total">    5.06    5.06</time>
   <energy>
    <i name="alphaZ">   1893.09323658 </i>
    <i name="ewald"> 220144.46675181 </i>
    <i name="hartreedc">-341637.32485947 </i>
    <i name="XCdc">   3651.99891431 </i>
    <i name="pawpsdc"> 139198.06990190 </i>
    <i name="pawaedc">-144184.70779820 </i>
    <i name="eentropy">     -0.97210617 </i>
    <i name="bandstr"> -15417.08176466 </i>
    <i name="atom"> 136002.60505376 </i>
    <i name="e_fr_energy">   -349.85267015 </i>
    <i name="e_wo_entrp">   -348.88056398 </i>
    <i name="e_0_energy">   -349.36661706 </i>
   </energy>
  </scstep>
  <structure>
   <crystal>
    <varray name="basis" >
     <v>      10.07973298       0.00000000       0.00000000 </v>
     <v>       3.57329804       9.42510255       0.00000000 </v>
     <v>       0.00000000       0.00000000      20.68350356 </v>
    </varray>
    <i name="volume">   1964.98490008 </i>
    <varray name="rec_basis" >
     <v>       0.09920898      -0.03761267       0.00000000 </v>
     <v>       0.00000000       0.10609964       0.00000000 </v>
     <v>       0.00000000       0.00000000       0.04834771 </v>
    </varray>
   </crystal>
   <varray name="positions" >
    <v>       0.31317830       0.94647945       0.06550314 </v>
    <v>       0.45151724       0.68150048       0.12296410 </v>
    <v>       0.54732740       0.64468328       0.25387405 </v>
    <v>       0.69759592       0.49441476       0.38081107 </v>
    <v>       0.82668796       0.34451710       0.48479845 </v>
    <v>       0.11381506       0.41152895       0.16924937 </v>
    <v>       0.26408357       0.26126044       0.29618639 </v>
    <v>       0.41435209       0.11099193       0.42312341 </v>
    <v>       0.97734346       0.59184294       0.10401310 </v>
    <v>       0.09823743       0.78304370       0.45141618 </v>
    <v>       0.83057123       0.02810611       0.21156171 </v>
    <v>       0.98083975       0.87783760       0.33849873 </v>
    <v>       0.33757154       0.48413694       0.13761037 </v>
    <v>       0.50762556       0.42017912       0.22033653 </v>
    <v>       0.65789407       0.26991061       0.34727355 </v>
    <v>       0.78886171       0.12262722       0.45832555 </v>
    <v>       0.07411322       0.18702479       0.13571184 </v>
    <v>       0.22438173       0.03675628       0.26264887 </v>
    <v>       0.37465025       0.88648777       0.38958589 </v>
    <v>       0.43432059       0.72333349       0.47374784 </v>
    <v>       0.05775976       0.35716533       0.04378140 </v>
    <v>       0.08378074       0.50923300       0.41856340 </v>
    <v>       0.53025335       0.90024432       0.12767746 </v>
    <v>       0.79086939       0.80360196       0.17802418 </v>
    <v>       0.94113790       0.65333344       0.30496121 </v>
    <v>       0.02470031       0.16544508       0.42566520 </v>
    <v>       0.73212972       0.45988096       0.18679900 </v>
    <v>       0.88239823       0.30961245       0.31373603 </v>
    <v>       0.29861738       0.22672664       0.10217432 </v>
    <v>       0.44888589       0.07645812       0.22911134 </v>
    <v>       0.59915440       0.92618961       0.35604837 </v>
    <v>       0.73392443       0.81731440       0.45189802 </v>
    <v>       0.01537355       0.84330380       0.14448666 </v>
    <v>       0.16564206       0.69303529       0.27142369 </v>
    <v>       0.31591057       0.54276677       0.39836071 </v>
    <v>       0.77488249       0.99639760       0.09797436 </v>
    <v>       0.00098337       0.99819865       0.48069033 </v>
    <v>       0.56090503       0.45646417       0.12731676 </v>
    <v>       0.73606781       0.25573088       0.24418359 </v>
    <v>       0.88633632       0.10546236       0.37112062 </v>
    <v>       0.16450513       0.14487321       0.04313326 </v>
    <v>       0.30255546       0.02257655       0.15955891 </v>
    <v>       0.45282398       0.87230804       0.28649593 </v>
    <v>       0.60309249       0.72203952       0.41343296 </v>
    <v>       0.01931164       0.63915371       0.20187125 </v>
    <v>       0.16958015       0.48888520       0.32880827 </v>
    <v>       0.29166414       0.35126188       0.43020058 </v>
    <v>       0.86904312       0.78942223       0.07493423 </v>
    <v>       0.50195406       0.78436058       0.04721477 </v>
    <v>       0.64356738       0.68932677       0.17003336 </v>
    <v>       0.78662264       0.54160604       0.28688901 </v>
    <v>       0.93689115       0.39133753       0.41382604 </v>
    <v>       0.19115838       0.45253167       0.07670290 </v>
    <v>       0.35311030       0.30845171       0.20226433 </v>
    <v>       0.50337881       0.15818320       0.32920136 </v>
    <v>       0.63271573       0.03063745       0.44209778 </v>
    <v>       0.06986647       0.92502888       0.24457667 </v>
    <v>       0.22013498       0.77476036       0.37151370 </v>
    <v>       0.28352156       0.63637416       0.48821320 </v>
    <v>       0.93650739       0.06429585       0.12893250 </v>
    <v>       0.22310860       0.79818873       0.09836451 </v>
    <v>       0.35047896       0.64131972       0.20265741 </v>
    <v>       0.50074748       0.49105120       0.32959444 </v>
    <v>       0.65128143       0.34011360       0.44115946 </v>
    <v>       0.06723514       0.25789688       0.24496976 </v>
    <v>       0.21750365       0.10762837       0.37190678 </v>
    <v>       0.40164486       0.94091959       0.48125976 </v>
    <v>       0.91696662       0.40816539       0.11803273 </v>
    <v>       0.45750777       0.06106227       0.05760019 </v>
    <v>       0.63847983       0.01811427       0.17564838 </v>
    <v>       0.78399131       0.87447404       0.28728210 </v>
    <v>       0.93425982       0.72420553       0.41421912 </v>
   </varray>
  </structure>
  <varray name="forces" >
   <v>      -1.05552222      -0.23403348      -1.87316893 </v>
   <v>      -0.71939352       0.17603048      -0.64167779 </v>
   <v>      -0.31166233      -0.27925319       1.30965401 </v>
   <v>       0.32294231       0.34955295      -0.18162645 </v>
   <v>       0.38336399       0.08501130       1.40718603 </v>
   <v>       0.34524111      -0.97536337       1.95237160 </v>
   <v>      -0.08746330      -0.12162979       0.03289283 </v>
   <v>      -0.63847151       1.18958922      -0.74315582 </v>
   <v>      -0.02601022      -0.18303391      -0.76035412 </v>
   <v>      -0.61869865       0.20854808       0.66573744 </v>
   <v>       0.70989689       0.00924982       2.30081605 </v>
   <v>       0.06009464      -0.36724130      -0.32125212 </v>
   <v>      -0.06220175      -0.55156143      -0.60194321 </v>
   <v>       0.30862253      -0.53596542       2.27746848 </v>
   <v>       0.24734963      -0.39235380      -1.50048568 </v>
   <v>      -0.69421482       0.28339819       1.03842202 </v>
   <v>      -0.59586636      -0.08130920       1.85020517 </v>
   <v>      -0.08513283      -0.33332869      -0.02597299 </v>
   <v>      -0.67689848       0.38325637      -2.92747869 </v>
   <v>       0.98123018      -0.35769264       0.77495616 </v>
   <v>      -0.49134359       0.27274695      -1.48888620 </v>
   <v>      -1.06226994      -0.40603487       1.32958697 </v>
   <v>       0.73052047      -0.59580874       0.73587210 </v>
   <v>       0.20226780      -0.88850829       0.70643421 </v>
   <v>      -0.07553624       0.09068103       0.00960387 </v>
   <v>       0.81755344       0.18349522       0.65314260 </v>
   <v>       0.60709908      -0.43105732       0.63049640 </v>
   <v>       0.06586663      -0.01310177      -0.17919570 </v>
   <v>       0.02092198       0.80965729       1.03014839 </v>
   <v>      -0.34847922      -0.23943019       0.80653668 </v>
   <v>      -0.30625369       0.28698434      -1.48434677 </v>
   <v>       0.36318115      -0.73907359       1.02824688 </v>
   <v>       1.06603654      -1.02496772       0.57044534 </v>
   <v>       0.26252541       0.23685135       0.12903411 </v>
   <v>       0.07911058       0.10958970      -1.84998425 </v>
   <v>      -0.64276971       1.27883685      -1.22747640 </v>
   <v>       0.56272793      -0.29299696       1.93505968 </v>
   <v>       0.48491387      -1.83539894      -3.18470867 </v>
   <v>       0.05311379      -0.03656115      -0.32728638 </v>
   <v>      -0.37633189      -0.80112498      -3.39478715 </v>
   <v>      -1.02061241      -0.22680816      -2.92778373 </v>
   <v>      -0.89751538       1.41094641       3.16966936 </v>
   <v>      -0.25482785      -0.13751689       0.08228699 </v>
   <v>       0.02860708      -1.59710340      -0.21170703 </v>
   <v>       0.08327905       0.17472309       0.97461618 </v>
   <v>       0.35533641       0.41174418      -2.81140467 </v>
   <v>       0.50454121      -0.85711659       2.14142122 </v>
   <v>      -0.39435574       0.28652206      -2.31827757 </v>
   <v>       1.44210958      -2.06407568      -3.50900826 </v>
   <v>       0.95392488       0.26581344       0.18015034 </v>
   <v>       0.39486130      -0.23049700       0.45951143 </v>
   <v>       1.34592263       1.12962086      -0.45969996 </v>
   <v>       1.64800014       1.55377547      -2.41451902 </v>
   <v>       0.13101506      -0.51601957       0.59306792 </v>
   <v>      -0.22885498       0.17652831      -0.82824245 </v>
   <v>       0.96788061       0.03259185       1.89289729 </v>
   <v>       0.28794690      -0.11029466       0.81030613 </v>
   <v>       0.88342360       0.17441863      -1.89415731 </v>
   <v>       0.13535429      -0.68876024       3.53178547 </v>
   <v>       0.78820217       1.71397876      -1.59585130 </v>
   <v>      -1.27885881      -0.35322417      -1.41237119 </v>
   <v>      -1.08161111       0.26753524       3.30797953 </v>
   <v>      -0.07764015       0.46971566      -0.64103674 </v>
   <v>      -2.33278809       0.91879270       2.34617505 </v>
   <v>       0.19790980       0.04478005      -0.15695606 </v>
   <v>       0.17471517      -0.03708828      -0.53394140 </v>
   <v>      -0.96708095       0.88069499       3.64276636 </v>
   <v>      -2.65691363       0.35317175       0.77155437 </v>
   <v>       2.02763616       1.08460144      -2.52185276 </v>
   <v>      -0.46321139       1.75741457      -0.14639677 </v>
   <v>       0.29401456      -0.31597924       0.33263240 </v>
   <v>      -0.79046981      -0.20953396      -0.31414352 </v>
  </varray>
  <varray name="stress" >
   <v>      72.72166990      -4.19066295      -1.47833426 </v>
   <v>      -4.19066301      76.29012278      -3.31077180 </v>
   <v>      -1.47833385      -3.31077170      89.99243662 </v>
  </varray>
  <energy>
   <i name="e_fr_energy">   -349.85267015 </i>
   <i name="e_wo_entrp">   -349.36661706 </i>
   <i name="e_0_energy">     -0.97210617 </i>
  </energy>
  <time name="totalsc">  264.96  265.12</time>
  <eigenvalues>
   <array>
    <dimension dim="1">band</dimension>
    <dimension dim="2">kpoint</dimension>
    <dimension dim="3">spin</dimension>
    <field>eigene</field>
    <field>occ</field>
    <set>
     <set comment="spin 1">
      <set comment="kpoint 1">
       <r>  -63.4491    1.0000 </r>
       <r>  -63.4191    1.0000 </r>
       <r>  -63.3632    1.0000 </r>
       <r>  -63.2041    1.0000 </r>
       <r>  -63.1754    1.0000 </r>
       <r>  -63.1662    1.0000 </r>
       <r>  -63.1394    1.0000 </r>
       <r>  -63.1206    1.0000 </r>
       <r>  -63.0999    1.0000 </r>
       <r>  -63.0611    1.0000 </r>
       <r>  -63.0472    1.0000 </r>
       <r>  -63.0394    1.0000 </r>
       <r>  -63.0328    1.0000 </r>
       <r>  -63.0096    1.0000 </r>
       <r>  -62.9949    1.0000 </r>
       <r>  -62.9913    1.0000 </r>
       <r>  -62.9864    1.0000 </r>
       <r>  -62.9853    1.0000 </r>
       <r>  -62.9846    1.0000 </r>
       <r>  -62.9739    1.0000 </r>
       <r>  -62.9724    1.0000 </r>
       <r>  -62.9465    1.0000 </r>
       <r>  -62.9282    1.0000 </r>
       <r>  -62.9276    1.0000 </r>
       <r>  -62.9168    1.0000 </r>
       <r>  -62.8933    1.0000 </r>
       <r>  -62.8897    1.0000 </r>
       <r>  -62.8799    1.0000 </r>
       <r>  -62.8663    1.0000 </r>
       <r>  -62.8533    1.0000 </r>
       <r>  -62.8462    1.0000 </r>
       <r>  -62.8113    1.0000 </r>
       <r>  -62.8109    1.0000 </r>
       <r>  -62.8077    1.0000 </r>
       <r>  -62.8070    1.0000 </r>
       <r>  -62.7943    1.0000 </r>
       <r>  -62.7916    1.0000 </r>
       <r>  -62.7853    1.0000 </r>
       <r>  -62.7786    1.0000 </r>
       <r>  -62.7746    1.0000 </r>
       <r>  -62.7745    1.0000 </r>
       <r>  -62.7592    1.0000 </r>
       <r>  -62.7553    1.0000 </r>
       <r>  -62.7547    1.0000 </r>
       <r>  -62.7445    1.0000 </r>
       <r>  -62.7343    1.0000 </r>
       <r>  -62.7331    1.0000 </r>
       <r>  -62.7277    1.0000 </r>
       <r>  -62.7226    1.0000 </r>
       <r>  -62.7192    1.0000 </r>
       <r>  -62.7169    1.0000 </r>
       <r>  -62.7118    1.0000 </r>
       <r>  -62.6907    1.0000 </r>
       <r>  -62.6784    1.0000 </r>
       <r>  -62.6672    1.0000 </r>
       <r>  -62.6669    1.0000 </r>
       <r>  -62.6572    1.0000 </r>
       <r>  -62.6534    1.0000 </r>
       <r>  -62.6495    1.0000 </r>
       <r>  -62.6491    1.0000 </r>
       <r>  -62.6415    1.0000 </r>
       <r>  -62.6401    1.0000 </r>
       <r>  -62.6341    1.0000 </r>
       <r>  -62.6314    1.0000 </r>
       <r>  -62.6209    1.0000 </r>
       <r>  -62.6191    1.0000 </r>
       <r>  -62.6029    1.0000 </r>
       <r>  -62.6009    1.0000 </r>
       <r>  -62.6008    1.0000 </r>
       <r>  -62.5995    1.0000 </r>
       <r>  -62.5889    1.0000 </r>
       <r>  -62.5828    1.0000 </r>
       <r>  -62.5776    1.0000 </r>
       <r>  -62.5718    1.0000 </r>
       <r>  -62.5679    1.0000 </r>
       <r>  -62.5656    1.0000 </r>
       <r>  -62.5622    1.0000 </r>
       <r>  -62.5619    1.0000 </r>
       <r>  -62.5357    1.0000 </r>
       <r>  -62.5257    1.0000 </r>
       <r>  -62.5174    1.0000 </r>
       <r>  -62.5095    1.0000 </r>
       <r>  -62.5094    1.0000 </r>
       <r>  -62.5007    1.0000 </r>
       <r>  -62.5000    1.0000 </r>
       <r>  -62.4978    1.0000 </r>
       <r>  -62.4966    1.0000 </r>
       <r>  -62.4966    1.0000 </r>
       <r>  -62.4842    1.0000 </r>
       <r>  -62.4748    1.0000 </r>
       <r>  -62.4694    1.0000 </r>
       <r>  -62.4563    1.0000 </r>
       <r>  -62.4541    1.0000 </r>
       <r>  -62.4404    1.0000 </r>
       <r>  -62.4384    1.0000 </r>
       <r>  -62.4081    1.0000 </r>
       <r>  -62.3828    1.0000 </r>
       <r>  -62.3531    1.0000 </r>
       <r>  -62.3405    1.0000 </r>
       <r>  -62.3136    1.0000 </r>
       <r>  -62.3070    1.0000 </r>
       <r>  -62.2209    1.0000 </r>
       <r>  -62.1094    1.0000 </r>
       <r>  -62.0454    1.0000 </r>
       <r>  -61.9920    1.0000 </r>
       <r>  -61.9094    1.0000 </r>
       <r>  -61.7801    1.0000 </r>
       <r>  -61.6801    1.0000 </r>
       <r>  -14.9647    1.0000 </r>
       <r>  -14.4915    1.0000 </r>
       <r>  -14.3026    1.0000 </r>
       <r>  -14.0554    1.0000 </r>
       <r>  -14.0048    1.0000 </r>
       <r>  -13.9060    1.0000 </r>
       <r>  -13.7238    1.0000 </r>
       <r>  -13.5256    1.0000 </r>
       <r>  -13.4986    1.0000 </r>
       <r>  -13.3900    1.0000 </r>
       <r>  -13.2633    1.0000 </r>
       <r>  -13.2255    1.0000 </r>
       <r>  -13.1030    1.0000 </r>
       <r>  -13.0471    1.0000 </r>
       <r>  -13.0187    1.0000 </r>
       <r>  -12.8631    1.0000 </r>
       <r>  -12.8386    1.0000 </r>
       <r>  -12.7825    1.0000 </r>
       <r>  -12.7147    1.0000 </r>
       <r>  -12.6732    1.0000 </r>
       <r>  -12.5977    1.0000 </r>
       <r>  -12.5536    1.0000 </r>
       <r>  -12.4907    1.0000 </r>
       <r>  -12.3752    1.0000 </r>
       <r>  -12.2760    1.0000 </r>
       <r>  -12.1647    1.0000 </r>
       <r>  -12.1572    1.0000 </r>
       <r>  -12.0980    1.0000 </r>
       <r>  -12.0308    1.0000 </r>
       <r>  -11.9457    1.0000 </r>
       <r>  -11.9016    1.0000 </r>
       <r>  -11.8161    1.0000 </r>
       <r>  -11.6959    1.0000 </r>
       <r>  -11.6572    1.0000 </r>
       <r>  -11.4236    1.0000 </r>
       <r>  -11.2840    1.0000 </r>
       <r>   -6.7039    1.0000 </r>
       <r>   -6.5032    1.0000 </r>
       <r>   -6.3669    1.0000 </r>
       <r>   -6.2891    1.0000 </r>
       <r>   -6.1978    1.0000 </r>
       <r>   -6.0623    1.0000 </r>
       <r>   -5.9744    1.0000 </r>
       <r>   -5.9075    1.0000 </r>
       <r>   -5.8301    1.0000 </r>
       <r>   -5.7951    1.0000 </r>
       <r>   -5.7654    1.0000 </r>
       <r>   -5.7225    1.0000 </r>
       <r>   -5.6671    1.0000 </r>
       <r>   -5.6347    1.0000 </r>
       <r>   -5.5547    1.0000 </r>
       <r>   -5.5221    1.0000 </r>
       <r>   -5.4998    1.0000 </r>
       <r>   -5.4698    1.0000 </r>
       <r>   -5.4045    1.0000 </r>
       <r>   -5.3720    1.0000 </r>
       <r>   -5.3555    1.0000 </r>
       <r>   -5.2905    1.0000 </r>
       <r>   -5.2586    1.0000 </r>
       <r>   -5.2024    1.0000 </r>
       <r>   -5.1707    1.0000 </r>
       <r>   -5.1501    1.0000 </r>
       <r>   -5.0559    1.0000 </r>
       <r>   -4.9947    1.0000 </r>
       <r>   -4.9690    1.0000 </r>
       <r>   -4.9438    1.0000 </r>
       <r>   -4.8572    1.0000 </r>
       <r>   -4.8252    1.0000 </r>
       <r>   -4.8051    1.0000 </r>
       <r>   -4.6796    1.0000 </r>
       <r>   -4.6645    1.0000 </r>
       <r>   -4.6041    1.0000 </r>
       <r>   -4.5001    1.0000 </r>
       <r>   -4.4938    1.0000 </r>
       <r>   -4.4620    1.0000 </r>
       <r>   -4.4454    1.0000 </r>
       <r>   -4.4127    1.0000 </r>
       <r>   -4.3326    1.0000 </r>
       <r>   -4.2955    1.0000 </r>
       <r>   -4.2224    1.0000 </r>
       <r>   -4.2054    1.0000 </r>
       <r>   -4.1720    1.0000 </r>
       <r>   -4.1448    1.0000 </r>
       <r>   -4.0548    1.0000 </r>
       <r>   -4.0220    1.0000 </r>
       <r>   -4.0187    1.0000 </r>
       <r>   -3.9497    1.0000 </r>
       <r>   -3.9223    1.0000 </r>
       <r>   -3.8749    1.0000 </r>
       <r>   -3.8589    1.0000 </r>
       <r>   -3.8073    1.0000 </r>
       <r>   -3.7901    1.0000 </r>
       <r>   -3.7434    1.0000 </r>
       <r>   -3.7015    1.0000 </r>
       <r>   -3.6800    1.0000 </r>
       <r>   -3.6402    1.0000 </r>
       <r>   -3.6142    1.0000 </r>
       <r>   -3.5977    1.0000 </r>
       <r>   -3.5777    1.0000 </r>
       <r>   -3.5547    1.0000 </r>
       <r>   -3.4962    1.0000 </r>
       <r>   -3.4516    1.0000 </r>
       <r>   -3.4466    1.0000 </r>
       <r>   -3.4152    1.0000 </r>
       <r>   -3.3856    1.0000 </r>
       <r>   -3.3081    1.0000 </r>
       <r>   -3.3026    1.0000 </r>
       <r>   -3.2859    1.0000 </r>
       <r>   -3.2674    1.0000 </r>
       <r>   -3.2377    1.0000 </r>
       <r>   -3.2339    1.0000 </r>
       <r>   -3.1924    1.0000 </r>
       <r>   -3.1512    1.0000 </r>
       <r>   -3.0912    1.0000 </r>
       <r>   -3.0871    1.0000 </r>
       <r>   -3.0450    1.0000 </r>
       <r>   -2.9884    1.0000 </r>
       <r>   -2.9587    1.0000 </r>
       <r>   -2.9333    1.0000 </r>
       <r>   -2.8973    1.0000 </r>
       <r>   -2.8810    1.0000 </r>
       <r>   -2.8440    1.0000 </r>
       <r>   -2.8094    1.0000 </r>
       <r>   -2.7473    1.0000 </r>
       <r>   -2.7358    1.0000 </r>
       <r>   -2.6703    1.0000 </r>
       <r>   -2.6574    1.0000 </r>
       <r>   -2.6040    1.0000 </r>
       <r>   -2.5513    1.0000 </r>
       <r>   -2.5288    1.0000 </r>
       <r>   -2.4896    1.0000 </r>
       <r>   -2.4545    1.0000 </r>
       <r>   -2.4144    1.0000 </r>
       <r>   -2.3576    1.0000 </r>
       <r>   -2.2898    1.0000 </r>
       <r>   -2.2250    1.0000 </r>
       <r>   -2.1591    1.0000 </r>
       <r>   -2.1424    1.0000 </r>
       <r>   -2.1096    1.0000 </r>
       <r>   -2.0004    1.0000 </r>
       <r>   -1.9891    1.0000 </r>
       <r>   -1.9688    1.0000 </r>
       <r>   -1.9185    1.0000 </r>
       <r>   -1.8676    1.0000 </r>
       <r>   -1.7981    1.0000 </r>
       <r>   -1.7784    1.0000 </r>
       <r>   -1.7488    1.0000 </r>
       <r>   -1.7222    1.0000 </r>
       <r>   -1.6887    1.0000 </r>
       <r>   -1.6772    1.0000 </r>
       <r>   -1.6469    1.0000 </r>
       <r>   -1.6078    1.0000 </r>
       <r>   -1.5658    1.0000 </r>
       <r>   -1.5009    1.0000 </r>
       <r>   -1.4950    1.0000 </r>
       <r>   -1.4706    1.0000 </r>
       <r>   -1.4504    1.0000 </r>
       <r>   -1.4363    1.0000 </r>
       <r>   -1.4031    1.0000 </r>
       <r>   -1.3571    1.0000 </r>
       <r>   -1.3465    1.0000 </r>
       <r>   -1.3241    1.0000 </r>
       <r>   -1.2974    1.0000 </r>
       <r>   -1.2746    1.0000 </r>
       <r>   -1.2439    1.0000 </r>
       <r>   -1.2355    1.0000 </r>
       <r>   -1.2073    1.0000 </r>
       <r>   -1.1773    1.0000 </r>
       <r>   -1.1694    1.0000 </r>
       <r>   -1.1631    1.0000 </r>
       <r>   -1.1364    1.0000 </r>
       <r>   -1.1284    1.0000 </r>
       <r>   -1.0883    1.0000 </r>
       <r>   -1.0714    1.0000 </r>
       <r>   -1.0482    1.0000 </r>
       <r>   -1.0396    1.0000 </r>
       <r>   -1.0069    1.0000 </r>
       <r>   -0.9901    1.0000 </r>
       <r>   -0.9805    1.0000 </r>
       <r>   -0.9703    1.0000 </r>
       <r>   -0.9479    1.0000 </r>
       <r>   -0.9431    1.0000 </r>
       <r>   -0.9033    1.0000 </r>
       <r>   -0.8926    1.0000 </r>
       <r>   -0.8817    1.0000 </r>
       <r>   -0.8669    1.0000 </r>
       <r>   -0.8262    1.0000 </r>
       <r>   -0.8083    1.0000 </r>
       <r>   -0.8031    1.0000 </r>
       <r>   -0.7789    1.0000 </r>
       <r>   -0.7542    1.0000 </r>
       <r>   -0.7432    1.0000 </r>
       <r>   -0.7239    1.0000 </r>
       <r>   -0.7174    1.0000 </r>
       <r>   -0.7107    1.0000 </r>
       <r>   -0.6687    1.0000 </r>
       <r>   -0.6450    1.0000 </r>
       <r>   -0.6358    1.0000 </r>
       <r>   -0.6335    1.0000 </r>
       <r>   -0.6051    1.0000 </r>
       <r>   -0.5957    1.0000 </r>
       <r>   -0.5768    1.0000 </r>
       <r>   -0.5730    1.0000 </r>
       <r>   -0.5587    1.0000 </r>
       <r>   -0.5514    1.0000 </r>
       <r>   -0.5224    1.0000 </r>
       <r>   -0.5154    1.0000 </r>
       <r>   -0.5046    1.0000 </r>
       <r>   -0.4806    1.0000 </r>
       <r>   -0.4642    1.0000 </r>
       <r>   -0.4611    1.0000 </r>
       <r>   -0.4492    1.0000 </r>
       <r>   -0.4362    1.0000 </r>
       <r>   -0.4035    1.0000 </r>
       <r>   -0.3865    1.0000 </r>
       <r>   -0.3703    1.0000 </r>
       <r>   -0.3627    1.0000 </r>
       <r>   -0.3580    1.0000 </r>
       <r>   -0.3422    1.0000 </r>
       <r>   -0.3161    1.0000 </r>
       <r>   -0.2988    1.0000 </r>
       <r>   -0.2856    1.0000 </r>
       <r>   -0.2718    1.0000 </r>
       <r>   -0.2634    1.0000 </r>
       <r>   -0.2581    1.0000 </r>
       <r>   -0.2472    1.0000 </r>
       <r>   -0.2149    1.0000 </r>
       <r>   -0.2098    1.0000 </r>
       <r>   -0.1905    1.0000 </r>
       <r>   -0.1826    1.0000 </r>
       <r>   -0.1565    1.0000 </r>
       <r>   -0.1438    1.0000 </r>
       <r>   -0.1359    1.0000 </r>
       <r>   -0.1220    1.0000 </r>
       <r>   -0.0914    1.0000 </r>
       <r>   -0.0714    1.0000 </r>
       <r>   -0.0505    1.0000 </r>
       <r>   -0.0485    1.0000 </r>
       <r>   -0.0452    1.0000 </r>
       <r>   -0.0142    1.0000 </r>
       <r>   -0.0077    1.0000 </r>
       <r>    0.0064    1.0000 </r>
       <r>    0.0289    1.0000 </r>
       <r>    0.0427    1.0000 </r>
       <r>    0.0499    1.0000 </r>
       <r>    0.0902    1.0000 </r>
       <r>    0.0983    1.0000 </r>
       <r>    0.1385    1.0000 </r>
       <r>    0.1511    1.0000 </r>
       <r>    0.1934    1.0000 </r>
       <r>    0.2200    1.0000 </r>
       <r>    0.2522    1.0000 </r>
       <r>    0.2820    1.0000 </r>
       <r>    0.3069    1.0000 </r>
       <r>    0.3215    1.0000 </r>
       <r>    0.3736    1.0000 </r>
       <r>    0.3889    1.0000 </r>
       <r>    0.3925    1.0000 </r>
       <r>    0.4544    1.0000 </r>
       <r>    0.4608    1.0000 </r>
       <r>    0.4921    1.0000 </r>
       <r>    0.5148    1.0000 </r>
       <r>    0.5349    1.0000 </r>
       <r>    0.5559    1.0000 </r>
       <r>    0.5819    1.0000 </r>
       <r>    0.6291    1.0000 </r>
       <r>    0.6419    1.0000 </r>
       <r>    0.6963    1.0000 </r>
       <r>    0.7456    1.0000 </r>
       <r>    0.7721    1.0000 </r>
       <r>    0.7938    1.0000 </r>
       <r>    0.8233    1.0000 </r>
       <r>    0.8338    1.0000 </r>
       <r>    0.8866    1.0000 </r>
       <r>    0.9210    1.0000 </r>
       <r>    0.9506    1.0000 </r>
       <r>    1.0092    0.9997 </r>
       <r>    1.0283    0.9996 </r>
       <r>    1.0814    0.9985 </r>
       <r>    1.1094    0.9972 </r>
       <r>    1.1847    0.9874 </r>
       <r>    1.2047    0.9820 </r>
       <r>    1.2578    0.9574 </r>
       <r>    1.3268    0.8912 </r>
       <r>    1.3624    0.8369 </r>
       <r>    1.4051    0.7515 </r>
       <r>    1.4370    0.6751 </r>
       <r>    1.4955    0.5160 </r>
       <r>    1.5286    0.4231 </r>
       <r>    1.5459    0.3760 </r>
       <r>    1.5849    0.2770 </r>
       <r>    1.6599    0.1309 </r>
       <r>    1.6979    0.0821 </r>
       <r>    1.7334    0.0503 </r>
       <r>    1.7792    0.0247 </r>
       <r>    1.7930    0.0195 </r>
       <r>    1.8233    0.0114 </r>
       <r>    1.8346    0.0092 </r>
       <r>    1.8890    0.0031 </r>
       <r>    1.9723    0.0004 </r>
       <r>    2.0376    0.0001 </r>
       <r>    2.0535    0.0000 </r>
       <r>    2.1039    0.0000 </r>
       <r>    2.1567    0.0000 </r>
       <r>    2.1856    0.0000 </r>
       <r>    2.2184    0.0000 </r>
       <r>    2.2277    0.0000 </r>
       <r>    2.2961    0.0000 </r>
       <r>    2.3171    0.0000 </r>
       <r>    2.3533    0.0000 </r>
       <r>    2.3835    0.0000 </r>
       <r>    2.4455    0.0000 </r>
       <r>    2.4748    0.0000 </r>
       <r>    2.5057    0.0000 </r>
       <r>    2.5452    0.0000 </r>
       <r>    2.5894    0.0000 </r>
       <r>    2.6388    0.0000 </r>
       <r>    2.7176    0.0000 </r>
       <r>    2.7455    0.0000 </r>
       <r>    2.7836    0.0000 </r>
       <r>    2.8591    0.0000 </r>
       <r>    2.9478    0.0000 </r>
       <r>    3.0565    0.0000 </r>
       <r>    3.1661    0.0000 </r>
       <r>    3.8991    0.0000 </r>
       <r>    4.4382    0.0000 </r>
       <r>    4.5141    0.0000 </r>
       <r>    4.8074    0.0000 </r>
       <r>    4.9121    0.0000 </r>
       <r>    5.1089    0.0000 </r>
       <r>    5.2934    0.0000 </r>
       <r>    5.4014    0.0000 </r>
       <r>    5.4723    0.0000 </r>
       <r>    5.5493    0.0000 </r>
       <r>    5.7355    0.0000 </r>
       <r>    5.7765    0.0000 </r>
       <r>    5.8647    0.0000 </r>
       <r>    5.9254    0.0000 </r>
       <r>    5.9923    0.0000 </r>
       <r>    6.0225    0.0000 </r>
       <r>    6.1619    0.0000 </r>
       <r>    6.2451    0.0000 </r>
       <r>    6.2616    0.0000 </r>
       <r>    6.2885    0.0000 </r>
       <r>    6.3958    0.0000 </r>
       <r>    6.4459    0.0000 </r>
       <r>    6.4858    0.0000 </r>
       <r>    6.5300    0.0000 </r>
       <r>    6.5772    0.0000 </r>
       <r>    6.6508    0.0000 </r>
       <r>    6.6866    0.0000 </r>
       <r>    6.7607    0.0000 </r>
       <r>    6.8732    0.0000 </r>
       <r>    6.8965    0.0000 </r>
       <r>    6.9324    0.0000 </r>
       <r>    6.9564    0.0000 </r>
       <r>    7.0023    0.0000 </r>
       <r>    7.1059    0.0000 </r>
       <r>    7.1764    0.0000 </r>
       <r>    7.1911    0.0000 </r>
       <r>    7.2403    0.0000 </r>
       <r>    7.3038    0.0000 </r>
       <r>    7.3094    0.0000 </r>
       <r>    7.3691    0.0000 </r>
       <r>    7.3736    0.0000 </r>
       <r>    7.4304    0.0000 </r>
       <r>    7.4643    0.0000 </r>
       <r>    7.5300    0.0000 </r>
      </set>
     </set>
    </set>
   </array>
  </eigenvalues>
  <separator name="orbital magnetization" >
   <v name="MAGDIPOLOUT">      0.00000000      0.00000000      0.00000000</v>
  </separator>
  <dos>
   <i name="efermi">      1.50117378 </i>
   <total>
    <array>
     <dimension dim="1">gridpoints</dimension>
     <dimension dim="2">spin</dimension>
     <field>energy</field>
     <field>total</field>
     <field>integrated</field>
     <set>
      <set comment="spin 1">
       <r>   -66.9980     0.0000     0.0000 </r>
       <r>   -66.7378     0.0000     0.0000 </r>
       <r>   -66.4775     0.0000     0.0000 </r>
       <r>   -66.2173     0.0000     0.0000 </r>
       <r>   -65.9570     0.0000     0.0000 </r>
       <r>   -65.6967     0.0000     0.0000 </r>
       <r>   -65.4365     0.0000     0.0000 </r>
       <r>   -65.1762     0.0000     0.0000 </r>
       <r>   -64.9160     0.0000     0.0000 </r>
       <r>   -64.6557     0.0000     0.0000 </r>
       <r>   -64.3955     0.0000     0.0000 </r>
       <r>   -64.1352     0.0000     0.0000 </r>
       <r>   -63.8750     0.0160     0.0042 </r>
       <r>   -63.6147     1.8766     0.4926 </r>
       <r>   -63.3544    17.6402     5.0836 </r>
       <r>   -63.0942    66.7261    22.4495 </r>
       <r>   -62.8339   180.2567    69.3625 </r>
       <r>   -62.5737   279.5064   142.1059 </r>
       <r>   -62.3134   196.0731   193.1352 </r>
       <r>   -62.0532    52.4061   206.7743 </r>
       <r>   -61.7929    22.6973   212.6814 </r>
       <r>   -61.5326    11.2668   215.6136 </r>
       <r>   -61.2724     1.4681   215.9957 </r>
       <r>   -61.0121     0.0164   216.0000 </r>
       <r>   -60.7519     0.0000   216.0000 </r>
       <r>   -60.4916     0.0000   216.0000 </r>
       <r>   -60.2314     0.0000   216.0000 </r>
       <r>   -59.9711     0.0000   216.0000 </r>
       <r>   -59.7108     0.0000   216.0000 </r>
       <r>   -59.4506     0.0000   216.0000 </r>
       <r>   -59.1903     0.0000   216.0000 </r>
       <r>   -58.9301     0.0000   216.0000 </r>
       <r>   -58.6698     0.0000   216.0000 </r>
       <r>   -58.4096     0.0000   216.0000 </r>
       <r>   -58.1493     0.0000   216.0000 </r>
       <r>   -57.8890     0.0000   216.0000 </r>
       <r>   -57.6288     0.0000   216.0000 </r>
       <r>   -57.3685     0.0000   216.0000 </r>
       <r>   -57.1083     0.0000   216.0000 </r>
       <r>   -56.8480     0.0000   216.0000 </r>
       <r>   -56.5878     0.0000   216.0000 </r>
       <r>   -56.3275     0.0000   216.0000 </r>
       <r>   -56.0673     0.0000   216.0000 </r>
       <r>   -55.8070     0.0000   216.0000 </r>
       <r>   -55.5467     0.0000   216.0000 </r>
       <r>   -55.2865     0.0000   216.0000 </r>
       <r>   -55.0262     0.0000   216.0000 </r>
       <r>   -54.7660     0.0000   216.0000 </r>
       <r>   -54.5057     0.0000   216.0000 </r>
       <r>   -54.2455     0.0000   216.0000 </r>
       <r>   -53.9852     0.0000   216.0000 </r>
       <r>   -53.7249     0.0000   216.0000 </r>
       <r>   -53.4647     0.0000   216.0000 </r>
       <r>   -53.2044     0.0000   216.0000 </r>
       <r>   -52.9442     0.0000   216.0000 </r>
       <r>   -52.6839     0.0000   216.0000 </r>
       <r>   -52.4237     0.0000   216.0000 </r>
       <r>   -52.1634     0.0000   216.0000 </r>
       <r>   -51.9031     0.0000   216.0000 </r>
       <r>   -51.6429     0.0000   216.0000 </r>
       <r>   -51.3826     0.0000   216.0000 </r>
       <r>   -51.1224     0.0000   216.0000 </r>
       <r>   -50.8621     0.0000   216.0000 </r>
       <r>   -50.6019     0.0000   216.0000 </r>
       <r>   -50.3416     0.0000   216.0000 </r>
       <r>   -50.0813     0.0000   216.0000 </r>
       <r>   -49.8211     0.0000   216.0000 </r>
       <r>   -49.5608     0.0000   216.0000 </r>
       <r>   -49.3006     0.0000   216.0000 </r>
       <r>   -49.0403     0.0000   216.0000 </r>
       <r>   -48.7801     0.0000   216.0000 </r>
       <r>   -48.5198     0.0000   216.0000 </r>
       <r>   -48.2596     0.0000   216.0000 </r>
       <r>   -47.9993     0.0000   216.0000 </r>
       <r>   -47.7390     0.0000   216.0000 </r>
       <r>   -47.4788     0.0000   216.0000 </r>
       <r>   -47.2185     0.0000   216.0000 </r>
       <r>   -46.9583     0.0000   216.0000 </r>
       <r>   -46.6980     0.0000   216.0000 </r>
       <r>   -46.4378     0.0000   216.0000 </r>
       <r>   -46.1775     0.0000   216.0000 </r>
       <r>   -45.9172     0.0000   216.0000 </r>
       <r>   -45.6570     0.0000   216.0000 </r>
       <r>   -45.3967     0.0000   216.0000 </r>
       <r>   -45.1365     0.0000   216.0000 </r>
       <r>   -44.8762     0.0000   216.0000 </r>
       <r>   -44.6160     0.0000   216.0000 </r>
       <r>   -44.3557     0.0000   216.0000 </r>
       <r>   -44.0954     0.0000   216.0000 </r>
       <r>   -43.8352     0.0000   216.0000 </r>
       <r>   -43.5749     0.0000   216.0000 </r>
       <r>   -43.3147     0.0000   216.0000 </r>
       <r>   -43.0544     0.0000   216.0000 </r>
       <r>   -42.7942     0.0000   216.0000 </r>
       <r>   -42.5339     0.0000   216.0000 </r>
       <r>   -42.2736     0.0000   216.0000 </r>
       <r>   -42.0134     0.0000   216.0000 </r>
       <r>   -41.7531     0.0000   216.0000 </r>
       <r>   -41.4929     0.0000   216.0000 </r>
       <r>   -41.2326     0.0000   216.0000 </r>
       <r>   -40.9724     0.0000   216.0000 </r>
       <r>   -40.7121     0.0000   216.0000 </r>
       <r>   -40.4519     0.0000   216.0000 </r>
       <r>   -40.1916     0.0000   216.0000 </r>
       <r>   -39.9313     0.0000   216.0000 </r>
       <r>   -39.6711     0.0000   216.0000 </r>
       <r>   -39.4108     0.0000   216.0000 </r>
       <r>   -39.1506     0.0000   216.0000 </r>
       <r>   -38.8903     0.0000   216.0000 </r>
       <r>   -38.6301     0.0000   216.0000 </r>
       <r>   -38.3698     0.0000   216.0000 </r>
       <r>   -38.1095     0.0000   216.0000 </r>
       <r>   -37.8493     0.0000   216.0000 </r>
       <r>   -37.5890     0.0000   216.0000 </r>
       <r>   -37.3288     0.0000   216.0000 </r>
       <r>   -37.0685     0.0000   216.0000 </r>
       <r>   -36.8083     0.0000   216.0000 </r>
       <r>   -36.5480     0.0000   216.0000 </r>
       <r>   -36.2877     0.0000   216.0000 </r>
       <r>   -36.0275     0.0000   216.0000 </r>
       <r>   -35.7672     0.0000   216.0000 </r>
       <r>   -35.5070     0.0000   216.0000 </r>
       <r>   -35.2467     0.0000   216.0000 </r>
       <r>   -34.9865     0.0000   216.0000 </r>
       <r>   -34.7262     0.0000   216.0000 </r>
       <r>   -34.4659     0.0000   216.0000 </r>
       <r>   -34.2057     0.0000   216.0000 </r>
       <r>   -33.9454     0.0000   216.0000 </r>
       <r>   -33.6852     0.0000   216.0000 </r>
       <r>   -33.4249     0.0000   216.0000 </r>
       <r>   -33.1647     0.0000   216.0000 </r>
       <r>   -32.9044     0.0000   216.0000 </r>
       <r>   -32.6442     0.0000   216.0000 </r>
       <r>   -32.3839     0.0000   216.0000 </r>
       <r>   -32.1236     0.0000   216.0000 </r>
       <r>   -31.8634     0.0000   216.0000 </r>
       <r>   -31.6031     0.0000   216.0000 </r>
       <r>   -31.3429     0.0000   216.0000 </r>
       <r>   -31.0826     0.0000   216.0000 </r>
       <r>   -30.8224     0.0000   216.0000 </r>
       <r>   -30.5621     0.0000   216.0000 </r>
       <r>   -30.3018     0.0000   216.0000 </r>
       <r>   -30.0416     0.0000   216.0000 </r>
       <r>   -29.7813     0.0000   216.0000 </r>
       <r>   -29.5211     0.0000   216.0000 </r>
       <r>   -29.2608     0.0000   216.0000 </r>
       <r>   -29.0006     0.0000   216.0000 </r>
       <r>   -28.7403     0.0000   216.0000 </r>
       <r>   -28.4800     0.0000   216.0000 </r>
       <r>   -28.2198     0.0000   216.0000 </r>
       <r>   -27.9595     0.0000   216.0000 </r>
       <r>   -27.6993     0.0000   216.0000 </r>
       <r>   -27.4390     0.0000   216.0000 </r>
       <r>   -27.1788     0.0000   216.0000 </r>
       <r>   -26.9185     0.0000   216.0000 </r>
       <r>   -26.6582     0.0000   216.0000 </r>
       <r>   -26.3980     0.0000   216.0000 </r>
       <r>   -26.1377     0.0000   216.0000 </r>
       <r>   -25.8775     0.0000   216.0000 </r>
       <r>   -25.6172     0.0000   216.0000 </r>
       <r>   -25.3570     0.0000   216.0000 </r>
       <r>   -25.0967     0.0000   216.0000 </r>
       <r>   -24.8365     0.0000   216.0000 </r>
       <r>   -24.5762     0.0000   216.0000 </r>
       <r>   -24.3159     0.0000   216.0000 </r>
       <r>   -24.0557     0.0000   216.0000 </r>
       <r>   -23.7954     0.0000   216.0000 </r>
       <r>   -23.5352     0.0000   216.0000 </r>
       <r>   -23.2749     0.0000   216.0000 </r>
       <r>   -23.0147     0.0000   216.0000 </r>
       <r>   -22.7544     0.0000   216.0000 </r>
       <r>   -22.4941     0.0000   216.0000 </r>
       <r>   -22.2339     0.0000   216.0000 </r>
       <r>   -21.9736     0.0000   216.0000 </r>
       <r>   -21.7134     0.0000   216.0000 </r>
       <r>   -21.4531     0.0000   216.0000 </r>
       <r>   -21.1929     0.0000   216.0000 </r>
       <r>   -20.9326     0.0000   216.0000 </r>
       <r>   -20.6723     0.0000   216.0000 </r>
       <r>   -20.4121     0.0000   216.0000 </r>
       <r>   -20.1518     0.0000   216.0000 </r>
       <r>   -19.8916     0.0000   216.0000 </r>
       <r>   -19.6313     0.0000   216.0000 </r>
       <r>   -19.3711     0.0000   216.0000 </r>
       <r>   -19.1108     0.0000   216.0000 </r>
       <r>   -18.8505     0.0000   216.0000 </r>
       <r>   -18.5903     0.0000   216.0000 </r>
       <r>   -18.3300     0.0000   216.0000 </r>
       <r>   -18.0698     0.0000   216.0000 </r>
       <r>   -17.8095     0.0000   216.0000 </r>
       <r>   -17.5493     0.0000   216.0000 </r>
       <r>   -17.2890     0.0000   216.0000 </r>
       <r>   -17.0288     0.0000   216.0000 </r>
       <r>   -16.7685     0.0000   216.0000 </r>
       <r>   -16.5082     0.0000   216.0000 </r>
       <r>   -16.2480     0.0000   216.0000 </r>
       <r>   -15.9877     0.0000   216.0000 </r>
       <r>   -15.7275     0.0000   216.0000 </r>
       <r>   -15.4672     0.0015   216.0004 </r>
       <r>   -15.2070     0.3315   216.0867 </r>
       <r>   -14.9467     3.9026   217.1023 </r>
       <r>   -14.6864     3.9313   218.1255 </r>
       <r>   -14.4262     6.2398   219.7494 </r>
       <r>   -14.1659    10.1907   222.4016 </r>
       <r>   -13.9057    15.4927   226.4337 </r>
       <r>   -13.6454    14.1545   230.1175 </r>
       <r>   -13.3852    18.7127   234.9876 </r>
       <r>   -13.1249    23.7197   241.1608 </r>
       <r>   -12.8646    27.7627   248.3863 </r>
       <r>   -12.6044    32.2996   256.7924 </r>
       <r>   -12.3441    26.7980   263.7668 </r>
       <r>   -12.0839    27.7510   270.9892 </r>
       <r>   -11.8236    28.3522   278.3680 </r>
       <r>   -11.5634    19.4005   283.4171 </r>
       <r>   -11.3031    11.7711   286.4806 </r>
       <r>   -11.0428     5.4721   287.9048 </r>
       <r>   -10.7826     0.3643   287.9996 </r>
       <r>   -10.5223     0.0015   288.0000 </r>
       <r>   -10.2621     0.0000   288.0000 </r>
       <r>   -10.0018     0.0000   288.0000 </r>
       <r>    -9.7416     0.0000   288.0000 </r>
       <r>    -9.4813     0.0000   288.0000 </r>
       <r>    -9.2211     0.0000   288.0000 </r>
       <r>    -8.9608     0.0000   288.0000 </r>
       <r>    -8.7005     0.0000   288.0000 </r>
       <r>    -8.4403     0.0000   288.0000 </r>
       <r>    -8.1800     0.0000   288.0000 </r>
       <r>    -7.9198     0.0000   288.0000 </r>
       <r>    -7.6595     0.0000   288.0000 </r>
       <r>    -7.3993     0.0000   288.0000 </r>
       <r>    -7.1390     0.0081   288.0021 </r>
       <r>    -6.8787     0.8545   288.2245 </r>
       <r>    -6.6185     6.6953   289.9670 </r>
       <r>    -6.3582    14.1725   293.6555 </r>
       <r>    -6.0980    19.6257   298.7632 </r>
       <r>    -5.8377    28.3581   306.1436 </r>
       <r>    -5.5775    42.6289   317.2381 </r>
       <r>    -5.3172    48.3059   329.8100 </r>
       <r>    -5.0569    44.5003   341.3915 </r>
       <r>    -4.7967    39.9974   351.8011 </r>
       <r>    -4.5364    38.8900   361.9225 </r>
       <r>    -4.2762    45.7611   373.8321 </r>
       <r>    -4.0159    48.0115   386.3274 </r>
       <r>    -3.7557    55.5209   400.7771 </r>
       <r>    -3.4954    63.7883   417.3784 </r>
       <r>    -3.2351    66.3612   434.6493 </r>
       <r>    -2.9749    61.5594   450.6706 </r>
       <r>    -2.7146    55.9849   465.2410 </r>
       <r>    -2.4544    49.5289   478.1313 </r>
       <r>    -2.1941    40.8052   488.7511 </r>
       <r>    -1.9339    43.4482   500.0588 </r>
       <r>    -1.6736    55.3376   514.4608 </r>
       <r>    -1.4133    68.7844   532.3624 </r>
       <r>    -1.1531    88.7671   555.4646 </r>
       <r>    -0.8928   105.6911   582.9714 </r>
       <r>    -0.6326   117.2364   613.4830 </r>
       <r>    -0.3723   132.9950   648.0958 </r>
       <r>    -0.1121   132.2333   682.5104 </r>
       <r>     0.1482   107.6390   710.5242 </r>
       <r>     0.4084    78.1401   730.8607 </r>
       <r>     0.6687    70.4589   749.1981 </r>
       <r>     0.9290    60.2405   764.8760 </r>
       <r>     1.1892    49.2682   777.6984 </r>
       <r>     1.4495    45.3798   789.5088 </r>
       <r>     1.7097    49.6789   802.4380 </r>
       <r>     1.9700    49.2080   815.2448 </r>
       <r>     2.2302    49.0911   828.0210 </r>
       <r>     2.4905    52.2178   841.6111 </r>
       <r>     2.7508    42.4564   852.6606 </r>
       <r>     3.0110    27.6761   859.8635 </r>
       <r>     3.2713    13.5403   863.3875 </r>
       <r>     3.5315     2.3488   863.9988 </r>
       <r>     3.7918     1.7266   864.4481 </r>
       <r>     4.0520     4.9179   865.7281 </r>
       <r>     4.3123     3.0584   866.5240 </r>
       <r>     4.5726     9.8668   869.0919 </r>
       <r>     4.8328    10.1762   871.7403 </r>
       <r>     5.0931    11.9913   874.8612 </r>
       <r>     5.3533    14.1817   878.5520 </r>
       <r>     5.6136    19.5026   883.6277 </r>
       <r>     5.8738    23.2401   889.6761 </r>
       <r>     6.1341    28.4151   897.0714 </r>
       <r>     6.3944    33.0400   905.6702 </r>
       <r>     6.6546    36.5462   915.1816 </r>
       <r>     6.9149    35.4147   924.3985 </r>
       <r>     7.1751    39.0721   934.5673 </r>
       <r>     7.4354    43.9295   946.0003 </r>
       <r>     7.6956    21.2791   951.5383 </r>
       <r>     7.9559     1.7609   951.9966 </r>
       <r>     8.2161     0.0130   952.0000 </r>
       <r>     8.4764     0.0000   952.0000 </r>
       <r>     8.7367     0.0000   952.0000 </r>
       <r>     8.9969     0.0000   952.0000 </r>
       <r>     9.2572     0.0000   952.0000 </r>
       <r>     9.5174     0.0000   952.0000 </r>
       <r>     9.7777     0.0000   952.0000 </r>
       <r>    10.0379     0.0000   952.0000 </r>
       <r>    10.2982     0.0000   952.0000 </r>
       <r>    10.5585     0.0000   952.0000 </r>
       <r>    10.8187     0.0000   952.0000 </r>
       <r>    11.0790     0.0000   952.0000 </r>
      </set>
     </set>
    </array>
   </total>
  </dos>
 </calculation>
 <structure name="finalpos" >
  <crystal>
   <varray name="basis" >
    <v>      10.07973298       0.00000000       0.00000000 </v>
    <v>       3.57329804       9.42510255       0.00000000 </v>
    <v>       0.00000000       0.00000000      20.68350356 </v>
   </varray>
   <i name="volume">   1964.98490008 </i>
   <varray name="rec_basis" >
    <v>       0.09920898      -0.03761267       0.00000000 </v>
    <v>       0.00000000       0.10609964       0.00000000 </v>
    <v>       0.00000000       0.00000000       0.04834771 </v>
   </varray>
  </crystal>
  <varray name="positions" >
   <v>       0.31317830       0.94647945       0.06550314 </v>
   <v>       0.45151724       0.68150048       0.12296410 </v>
   <v>       0.54732740       0.64468328       0.25387405 </v>
   <v>       0.69759592       0.49441476       0.38081107 </v>
   <v>       0.82668796       0.34451710       0.48479845 </v>
   <v>       0.11381506       0.41152895       0.16924937 </v>
   <v>       0.26408357       0.26126044       0.29618639 </v>
   <v>       0.41435209       0.11099193       0.42312341 </v>
   <v>       0.97734346       0.59184294       0.10401310 </v>
   <v>       0.09823743       0.78304370       0.45141618 </v>
   <v>       0.83057123       0.02810611       0.21156171 </v>
   <v>       0.98083975       0.87783760       0.33849873 </v>
   <v>       0.33757154       0.48413694       0.13761037 </v>
   <v>       0.50762556       0.42017912       0.22033653 </v>
   <v>       0.65789407       0.26991061       0.34727355 </v>
   <v>       0.78886171       0.12262722       0.45832555 </v>
   <v>       0.07411322       0.18702479       0.13571184 </v>
   <v>       0.22438173       0.03675628       0.26264887 </v>
   <v>       0.37465025       0.88648777       0.38958589 </v>
   <v>       0.43432059       0.72333349       0.47374784 </v>
   <v>       0.05775976       0.35716533       0.04378140 </v>
   <v>       0.08378074       0.50923300       0.41856340 </v>
   <v>       0.53025335       0.90024432       0.12767746 </v>
   <v>       0.79086939       0.80360196       0.17802418 </v>
   <v>       0.94113790       0.65333344       0.30496121 </v>
   <v>       0.02470031       0.16544508       0.42566520 </v>
   <v>       0.73212972       0.45988096       0.18679900 </v>
   <v>       0.88239823       0.30961245       0.31373603 </v>
   <v>       0.29861738       0.22672664       0.10217432 </v>
   <v>       0.44888589       0.07645812       0.22911134 </v>
   <v>       0.59915440       0.92618961       0.35604837 </v>
   <v>       0.73392443       0.81731440       0.45189802 </v>
   <v>       0.01537355       0.84330380       0.14448666 </v>
   <v>       0.16564206       0.69303529       0.27142369 </v>
   <v>       0.31591057       0.54276677       0.39836071 </v>
   <v>       0.77488249       0.99639760       0.09797436 </v>
   <v>       0.00098337       0.99819865       0.48069033 </v>
   <v>       0.56090503       0.45646417       0.12731676 </v>
   <v>       0.73606781       0.25573088       0.24418359 </v>
   <v>       0.88633632       0.10546236       0.37112062 </v>
   <v>       0.16450513       0.14487321       0.04313326 </v>
   <v>       0.30255546       0.02257655       0.15955891 </v>
   <v>       0.45282398       0.87230804       0.28649593 </v>
   <v>       0.60309249       0.72203952       0.41343296 </v>
   <v>       0.01931164       0.63915371       0.20187125 </v>
   <v>       0.16958015       0.48888520       0.32880827 </v>
   <v>       0.29166414       0.35126188       0.43020058 </v>
   <v>       0.86904312       0.78942223       0.07493423 </v>
   <v>       0.50195406       0.78436058       0.04721477 </v>
   <v>       0.64356738       0.68932677       0.17003336 </v>
   <v>       0.78662264       0.54160604       0.28688901 </v>
   <v>       0.93689115       0.39133753       0.41382604 </v>
   <v>       0.19115838       0.45253167       0.07670290 </v>
   <v>       0.35311030       0.30845171       0.20226433 </v>
   <v>       0.50337881       0.15818320       0.32920136 </v>
   <v>       0.63271573       0.03063745       0.44209778 </v>
   <v>       0.06986647       0.92502888       0.24457667 </v>
   <v>       0.22013498       0.77476036       0.37151370 </v>
   <v>       0.28352156       0.63637416       0.48821320 </v>
   <v>       0.93650739       0.06429585       0.12893250 </v>
   <v>       0.22310860       0.79818873       0.09836451 </v>
   <v>       0.35047896       0.64131972       0.20265741 </v>
   <v>       0.50074748       0.49105120       0.32959444 </v>
   <v>       0.65128143       0.34011360       0.44115946 </v>
   <v>       0.06723514       0.25789688       0.24496976 </v>
   <v>       0.21750365       0.10762837       0.37190678 </v>
   <v>       0.40164486       0.94091959       0.48125976 </v>
   <v>       0.91696662       0.40816539       0.11803273 </v>
   <v>       0.45750777       0.06106227       0.05760019 </v>
   <v>       0.63847983       0.01811427       0.17564838 </v>
   <v>       0.78399131       0.87447404       0.28728210 </v>
   <v>       0.93425982       0.72420553       0.41421912 </v>
  </varray>
 </structure>
</modeling>
