
72 atoms
2 atom types
   0.0000000000   16.8846940542 xlo xhi
   0.0000000000    9.5784100000 ylo yhi
   0.0000000000   16.1453309934 zlo zhi
   0.0000000000    0.0000000000    0.0000000000 xy xz yz

Atoms # atomic

     1      1   13.1708432249    1.3917138067    2.0563623686
     2      1   13.7545126029    1.3917138067    5.1409059295
     3      1    4.4366615004    6.1809188067    0.5140905881
     4      1    5.0203308784    6.1809188067    3.5986341490
     5      1    7.3480554085    1.3917138067    1.0281811924
     6      1    7.9317247866    1.3917138067    4.1127247533
     7      1   16.0822371331    6.1809188067    2.5704529728
     8      1   16.6659065111    6.1809188067    5.6549965338
     9      1    1.5252675922    1.3917138067    0.0000000000
    10      1    2.1089369871    1.3917138067    3.0845435609
    11      1   10.2594493167    6.1809188067    1.5422717805
    12      1   10.8431186948    6.1809188067    4.6268153414
    13      1   15.3242574847    0.1263771105    1.6488849227
    14      1   15.9079268628    0.1263771105    4.7334284675
    15      1    6.5900757771    4.9155821105    0.1066131423
    16      1    7.1737451551    4.9155821105    3.1911567032
    17      1    9.5014696684    0.1263771105    0.6207037304
    18      1   10.0851390633    0.1263771105    3.7052472913
    19      1    1.3509573387    4.9155821105    2.1629755108
    20      1    1.9346267167    4.9155821105    5.2475190718
    21      1    4.2623512469    0.1263771105    2.6770660989
    22      1    4.8460206249    0.1263771105    5.7616096599
    23      1   12.4128635766    4.9155821105    1.1347943185
    24      1   12.9965329546    4.9155821105    4.2193378794
    25      1   15.3242574847    2.6570505030    1.6488849227
    26      1   15.9079268628    2.6570505030    4.7334284675
    27      1    6.5900757771    7.4462555030    0.1066131423
    28      1    7.1737451551    7.4462555030    3.1911567032
    29      1    9.5014696684    2.6570505030    0.6207037304
    30      1   10.0851390633    2.6570505030    3.7052472913
    31      1    1.3509573387    7.4462555030    2.1629755108
    32      1    1.9346267167    7.4462555030    5.2475190718
    33      1    4.2623512469    2.6570505030    2.6770660989
    34      1    4.8460206249    2.6570505030    5.7616096599
    35      1   12.4128635766    7.4462555030    1.1347943185
    36      1   12.9965329546    7.4462555030    4.2193378794
    37      2    0.4394944369    1.3917138067    6.1405550929
    38      2   16.7405191130    1.3917138067    3.0560115320
    39      2    8.0063373885    6.1809188067    1.5137397515
    40      2    8.5900067665    6.1809188067    4.5982833125
    41      2   10.9177312967    1.3917138067    2.0278303396
    42      2   11.5014006747    1.3917138067    5.1123739006
    43      2    2.1835495721    6.1809188067    0.4855585592
    44      2    2.7672189670    6.1809188067    3.5701021201
    45      2    5.0949434803    1.3917138067    0.9996491634
    46      2    5.6786128583    1.3917138067    4.0841927244
    47      2   13.8291252048    6.1809188067    2.5419209439
    48      2   14.4127945829    6.1809188067    5.6264645048
    49      2   13.4147728541    3.0029460449    0.4903344611
    50      2   13.9984422490    3.0029460449    3.5748780220
    51      2    5.2642605245    7.7921510449    2.0326062416
    52      2    5.8479299025    7.7921510449    5.1171498025
    53      2    8.1756544327    3.0029460449    2.5466968458
    54      2    8.7593238107    3.0029460449    5.6312404067
    55      2    0.0251420861    7.7921510449    4.0889686263
    56      2   16.3261667623    7.7921510449    1.0044250654
    57      2    2.3528666163    3.0029460449    1.5185156535
    58      2    2.9365359943    3.0029460449    4.6030592144
    59      2   11.0870483409    7.7921510449    3.0607874339
    60      2   11.6707177189    7.7921510449    6.1453309949
    61      2    5.2642605245    4.5696865686    2.0326062416
    62      2    5.8479299025    4.5696865686    5.1171498025
    63      2   13.4147728541    9.3588915686    0.4903344611
    64      2   13.9984422490    9.3588915686    3.5748780220
    65      2    0.0251420861    4.5696865686    4.0889686263
    66      2   16.3261667623    4.5696865686    1.0044250654
    67      2    8.1756544327    9.3588915686    2.5466968458
    68      2    8.7593238107    9.3588915686    5.6312404067
    69      2   11.0870483409    4.5696865686    3.0607874339
    70      2   11.6707177189    4.5696865686    6.1453309949
    71      2    2.3528666163    9.3588915686    1.5185156535
    72      2    2.9365359943    9.3588915686    4.6030592144
