
54 atoms
2 atom types
   0.0000000000    9.5784100000 xlo xhi
   0.0000000000    8.8693028201 ylo yhi
   0.0000000000   19.0111357400 zlo zhi
  -4.7892050000    0.0000000000    0.0000000000 xy xz yz

Atoms # atomic

     1      1    1.7973757105    7.0064240172    4.8934299332
     2      1    1.7973757057    5.8952793120    7.8294878930
     3      1    1.7973757057    2.5750817529    0.9786859866
     4      1    1.7973757057    1.4639370388    3.9147439465
     5      1    1.7973757009    0.3527923336    6.8508019064
     6      1   -2.9918292896    5.9018975946    0.0000000000
     7      1    6.5865807057    4.7907528894    2.9360579599
     8      1    6.5865807057    3.6796081754    5.8721159198
     9      1    6.5865807057    2.5684634614    8.8081738797
    10      1    3.0627124019    6.0678168044    1.1816478452
    11      1    3.0627123971    4.9566720992    4.1177058051
    12      1    3.0627124067    3.8455273851    7.0537637650
    13      1    3.0627124019    0.5253298349    0.2029618586
    14      1   -1.7264925981    8.2834879410    3.1390198184
    15      1   -1.7264925981    7.1723432269    6.0750777783
    16      1   -1.7264926029    6.0611985217    9.0111357382
    17      1    7.8519174067    2.7410009626    2.1603338318
    18      1    7.8519174019    1.6298562574    5.0963917917
    19      1    4.3280490933    8.1175687312    1.9573719733
    20      1    4.3280491029    7.0064240172    4.8934299332
    21      1    4.3280490981    5.8952793120    7.8294878930
    22      1    4.3280490981    2.5750817529    0.9786859866
    23      1    4.3280490981    1.4639370388    3.9147439465
    24      1    4.3280490933    0.3527923336    6.8508019064
    25      1   -0.4611559019    4.7907528894    2.9360579599
    26      1   -0.4611559019    3.6796081754    5.8721159198
    27      1   -0.4611559019    2.5684634614    8.8081738797
    28      2    4.6739446448    5.9817243888    2.9088994308
    29      2    4.6739446400    4.8705796836    5.8449573907
    30      2    4.6739446400    3.7594349696    8.7810153506
    31      2    4.6739446352    0.4392374193    1.9302134442
    32      2   -0.1152603552    8.1973955254    4.8662714041
    33      2   -0.1152603552    7.0862508113    7.8023293640
    34      2   -0.1152603600    3.7660532611    0.9515274576
    35      2   -0.1152603600    2.6549085470    3.8875854175
    36      2   -0.1152603600    1.5437638330    6.8236433773
    37      2    7.8519174067    0.8336434131    0.9606194382
    38      2    3.0627124019    8.5918015281    3.8966773981
    39      2    3.0627124019    7.4806568140    6.8327353580
    40      2    3.0627123971    3.0493145497    2.9179914114
    41      2    3.0627124067    1.9381698356    5.8540493713
    42      2    3.0627124067    0.8270251216    8.7901073312
    43      2   -1.7264925981    6.3761303915    1.9393054248
    44      2   -1.7264925981    5.2649856774    4.8753633847
    45      2   -1.7264926029    4.1538409722    7.8114213446
    46      2    1.4514801685    5.9817243888    2.9088994308
    47      2    1.4514801637    4.8705796836    5.8449573907
    48      2    1.4514801637    3.7594349696    8.7810153506
    49      2    1.4514801589    0.4392374193    1.9302134442
    50      2   -3.3377248315    8.1973955254    4.8662714041
    51      2   -3.3377248315    7.0862508113    7.8023293640
    52      2    6.2406851637    3.7660532611    0.9515274576
    53      2    6.2406851637    2.6549085470    3.8875854175
    54      2    6.2406851637    1.5437638330    6.8236433773
