LAMMPS data file via write_data, version 5 Jun 2019, timestep = 42

74 atoms
2 atom types

0.0000000000000000e+00 1.6884694054200001e+01 xlo xhi
0.0000000000000000e+00 9.5784099999999999e+00 ylo yhi
0.0000000000000000e+00 1.6197619147600001e+01 zlo zhi
0.0000000000000000e+00 0.0000000000000000e+00 0.0000000000000000e+00 xy xz yz

Masses

1 58.71
2 32.06

Atoms # atomic

1 1 1.1998115781149510e+00 8.7410104888938900e+00 4.6037791526564718e+00 0 0 0
2 1 1.6807120366999999e+00 8.8448295298000001e+00 1.9497492390000000e+00 0 0 0
3 1 9.8312243663000007e+00 4.0556245298000002e+00 3.4920210149000002e+00 0 0 0
4 1 1.0534966185525242e+01 3.5109771482828322e+00 1.2873966075007224e+00 0 0 0
5 1 4.0084365668000004e+00 4.0556245298000002e+00 4.5202022095999999e+00 0 0 0
6 1 4.5796529428234560e+00 3.9218985191771312e+00 1.7964579432132526e+00 0 0 0
7 1 1.2182267330352820e+01 8.9197275499527660e+00 5.5731835273526888e+00 0 0 0
8 1 1.2701874598934198e+01 8.7608480690456023e+00 3.2003920325587569e+00 0 0 0
9 1 6.9198304750000004e+00 8.8448295298000001e+00 4.0061116122999998e+00 0 0 0
10 1 7.4877062072772533e+00 8.7159028346736918e+00 1.3648232097043456e+00 0 0 0
11 1 1.5832103765017015e+01 3.2777864368960867e+00 4.7112031549349522e+00 0 0 0
12 1 1.5595150100698007e+01 4.0865231351520022e+00 2.5478464376298726e+00 0 0 0
13 1 6.3631653788860953e+00 5.3209612260050951e+00 5.0308734196748022e+00 0 0 0
14 1 7.6778101065000000e+00 5.3209612259999997e+00 3.0845435678999999e+00 0 0 0
15 1 6.4307232090430704e+00 5.3209612265184925e+00 1.0736580371549951e+00 0 0 0
16 1 1.5828322453000000e+01 5.3175622600000005e-01 4.6268153437999997e+00 0 0 0
17 1 1.6471699142159739e+01 5.3175622603920603e-01 1.7289165035662333e+00 0 0 0
18 1 1.8550223070000005e+00 5.3209612259999997e+00 4.1127247463999996e+00 0 0 0
19 1 2.6650949623600781e+00 5.3209612260474914e+00 1.3076730624363626e+00 0 0 0
20 1 9.3143900247232043e+00 5.3175622623118546e-01 4.5417045936115263e+00 0 0 0
21 1 1.0589204014700000e+01 5.3175622600000005e-01 2.5704529705999999e+00 0 0 0
22 1 4.7664161983000000e+00 5.3175622600000005e-01 3.5986341490999978e+00 0 0 0
23 1 5.0118380441570176e+00 5.3175622605548534e-01 9.8498728857208273e-01 0 0 0
24 1 1.2165398282325794e+01 5.3209612265626456e+00 3.9819040778060613e+00 0 0 0
25 1 1.3500597922900003e+01 5.3209612259999997e+00 2.0563623731999998e+00 0 0 0
26 1 1.1998115780923453e+00 1.9009119630836837e+00 4.6037791526709180e+00 0 0 0
27 1 1.6807120366999999e+00 1.7970929222000001e+00 1.9497492390000000e+00 0 0 0
28 1 9.8312243663000007e+00 6.5862979222000009e+00 3.4920210149000002e+00 0 0 0
29 1 1.0534966185560529e+01 7.1309453037054524e+00 1.2873966075125600e+00 0 0 0
30 1 4.0084365668000004e+00 6.5862979222000009e+00 4.5202022095999999e+00 0 0 0
31 1 4.5796529427441870e+00 6.7200239330136382e+00 1.7964579433996635e+00 0 0 0
32 1 1.2182267327772646e+01 1.7221948980435227e+00 5.5731835281263873e+00 0 0 0
33 1 1.2701874598977721e+01 1.8810743831119758e+00 3.2003920332235682e+00 0 0 0
34 1 6.9198304750000004e+00 1.7970929222000001e+00 4.0061116122999998e+00 0 0 0
35 1 7.4877062073110006e+00 1.9260196173955901e+00 1.3648232097858131e+00 0 0 0
36 1 1.5832103764793583e+01 7.3641360153438269e+00 4.7112031549574205e+00 0 0 0
37 1 1.5595150100831777e+01 6.5553993168346656e+00 2.5478464377046066e+00 0 0 0
38 2 3.6693862534543348e-01 1.8732809778530681e+00 4.2516936797899690e-01 0 0 0
39 2 7.7870755084354943e+00 6.8822416356910230e+00 4.4596759345932595e+00 0 0 0
40 2 8.5054091306000004e+00 6.9321934642000000e+00 1.5660279006000000e+00 0 0 0
41 2 1.6556896852072526e+01 1.9090719079874034e+00 5.9952842715561063e+00 0 0 0
42 2 1.6655921460300000e+01 2.1429884642000001e+00 3.1082996927000002e+00 0 0 0
43 2 2.1163674341510537e+00 6.9904480312217681e+00 5.3038709528172019e+00 0 0 0
44 2 2.6826213141999999e+00 6.9321934642000000e+00 2.5942090953000001e+00 0 0 0
45 2 1.0833133660800000e+01 2.1429884642000001e+00 4.1364808711999999e+00 0 0 0
46 2 1.1700677967776642e+01 1.8801537036931208e+00 1.3982967675661793e+00 0 0 0
47 2 5.0237900713605113e+00 2.2200344475908960e+00 4.7928096578845150e+00 0 0 0
48 2 5.5940152224000004e+00 2.1429884642000001e+00 2.0801184980000000e+00 0 0 0
49 2 1.3744527569000001e+01 6.9321934642000000e+00 3.6223902737999998e+00 0 0 0
50 2 1.4495414340129955e+01 6.6503133302938302e+00 8.8317277996456622e-01 0 0 0
51 2 2.5133042869000000e+00 5.3175622600000005e-01 3.6271661742000001e+00 0 0 0
52 2 2.9650149664490435e+00 5.3175622600803407e-01 8.8345583126658744e-01 0 0 0
53 2 1.0415666745247060e+01 5.3209612259956405e+00 5.0052154659469448e+00 0 0 0
54 2 1.1247485994600000e+01 5.3209612259999997e+00 2.0848943983999999e+00 0 0 0
55 2 4.6042980107914122e+00 5.3209612259959789e+00 6.0308282506787299e+00 0 0 0
56 2 5.4246981781999999e+00 5.3209612259999997e+00 3.1130755930999978e+00 0 0 0
57 2 4.5197488215869592e+00 5.3209612262031358e+00 2.6154222993263099e-01 0 0 0
58 2 1.3575210524799999e+01 5.3175622600000005e-01 4.6553473689000002e+00 0 0 0
59 2 7.5310564767500310e+00 5.3175622599966577e-01 5.5046554082635071e+00 0 0 0
60 2 8.3360920864000008e+00 5.3175622600000005e-01 2.5989849956999977e+00 0 0 0
61 2 1.6486604432899998e+01 5.3209612259999997e+00 4.1412567715999957e+00 0 0 0
62 2 3.6693862533447014e-01 8.7686414742269942e+00 4.2516936798166932e-01 0 0 0
63 2 7.7870755084415091e+00 3.7596808163080375e+00 4.4596759345901633e+00 0 0 0
64 2 8.5054091306000004e+00 3.7097289879000002e+00 1.5660279006000000e+00 0 0 0
65 2 1.6556896852152839e+01 8.7328505440698407e+00 5.9952842715983401e+00 0 0 0
66 2 1.6655921460300000e+01 8.4989339878999992e+00 3.1082996927000002e+00 0 0 0
67 2 2.1163674341358272e+00 3.6514744207673338e+00 5.3038709528063288e+00 0 0 0
68 2 2.6826213141999999e+00 3.7097289879000002e+00 2.5942090953000001e+00 0 0 0
69 2 1.0833133660800000e+01 8.4989339878999992e+00 4.1364808711999999e+00 0 0 0
70 2 1.1700677967520130e+01 8.7617687484972251e+00 1.3982967671163380e+00 0 0 0
71 2 5.0237900713650463e+00 8.4218880044093378e+00 4.7928096578882737e+00 0 0 0
72 2 5.5940152224000004e+00 8.4989339878999992e+00 2.0801184980000000e+00 0 0 0
73 2 1.3744527569000001e+01 3.7097289879000002e+00 3.6223902737999998e+00 0 0 0
74 2 1.4495414339879302e+01 3.9916091215289082e+00 8.8317277995831989e-01 0 0 0

Velocities

1 0.0000000000000000e+00 0.0000000000000000e+00 0.0000000000000000e+00
2 0.0000000000000000e+00 0.0000000000000000e+00 0.0000000000000000e+00
3 0.0000000000000000e+00 0.0000000000000000e+00 0.0000000000000000e+00
4 0.0000000000000000e+00 0.0000000000000000e+00 0.0000000000000000e+00
5 0.0000000000000000e+00 0.0000000000000000e+00 0.0000000000000000e+00
6 0.0000000000000000e+00 0.0000000000000000e+00 0.0000000000000000e+00
7 0.0000000000000000e+00 0.0000000000000000e+00 0.0000000000000000e+00
8 0.0000000000000000e+00 0.0000000000000000e+00 0.0000000000000000e+00
9 0.0000000000000000e+00 0.0000000000000000e+00 0.0000000000000000e+00
10 0.0000000000000000e+00 0.0000000000000000e+00 0.0000000000000000e+00
11 0.0000000000000000e+00 0.0000000000000000e+00 0.0000000000000000e+00
12 0.0000000000000000e+00 0.0000000000000000e+00 0.0000000000000000e+00
13 0.0000000000000000e+00 0.0000000000000000e+00 0.0000000000000000e+00
14 0.0000000000000000e+00 0.0000000000000000e+00 0.0000000000000000e+00
15 0.0000000000000000e+00 0.0000000000000000e+00 0.0000000000000000e+00
16 0.0000000000000000e+00 0.0000000000000000e+00 0.0000000000000000e+00
17 0.0000000000000000e+00 0.0000000000000000e+00 0.0000000000000000e+00
18 0.0000000000000000e+00 0.0000000000000000e+00 0.0000000000000000e+00
19 0.0000000000000000e+00 0.0000000000000000e+00 0.0000000000000000e+00
20 0.0000000000000000e+00 0.0000000000000000e+00 0.0000000000000000e+00
21 0.0000000000000000e+00 0.0000000000000000e+00 0.0000000000000000e+00
22 0.0000000000000000e+00 0.0000000000000000e+00 0.0000000000000000e+00
23 0.0000000000000000e+00 0.0000000000000000e+00 0.0000000000000000e+00
24 0.0000000000000000e+00 0.0000000000000000e+00 0.0000000000000000e+00
25 0.0000000000000000e+00 0.0000000000000000e+00 0.0000000000000000e+00
26 0.0000000000000000e+00 0.0000000000000000e+00 0.0000000000000000e+00
27 0.0000000000000000e+00 0.0000000000000000e+00 0.0000000000000000e+00
28 0.0000000000000000e+00 0.0000000000000000e+00 0.0000000000000000e+00
29 0.0000000000000000e+00 0.0000000000000000e+00 0.0000000000000000e+00
30 0.0000000000000000e+00 0.0000000000000000e+00 0.0000000000000000e+00
31 0.0000000000000000e+00 0.0000000000000000e+00 0.0000000000000000e+00
32 0.0000000000000000e+00 0.0000000000000000e+00 0.0000000000000000e+00
33 0.0000000000000000e+00 0.0000000000000000e+00 0.0000000000000000e+00
34 0.0000000000000000e+00 0.0000000000000000e+00 0.0000000000000000e+00
35 0.0000000000000000e+00 0.0000000000000000e+00 0.0000000000000000e+00
36 0.0000000000000000e+00 0.0000000000000000e+00 0.0000000000000000e+00
37 0.0000000000000000e+00 0.0000000000000000e+00 0.0000000000000000e+00
38 0.0000000000000000e+00 0.0000000000000000e+00 0.0000000000000000e+00
39 0.0000000000000000e+00 0.0000000000000000e+00 0.0000000000000000e+00
40 0.0000000000000000e+00 0.0000000000000000e+00 0.0000000000000000e+00
41 0.0000000000000000e+00 0.0000000000000000e+00 0.0000000000000000e+00
42 0.0000000000000000e+00 0.0000000000000000e+00 0.0000000000000000e+00
43 0.0000000000000000e+00 0.0000000000000000e+00 0.0000000000000000e+00
44 0.0000000000000000e+00 0.0000000000000000e+00 0.0000000000000000e+00
45 0.0000000000000000e+00 0.0000000000000000e+00 0.0000000000000000e+00
46 0.0000000000000000e+00 0.0000000000000000e+00 0.0000000000000000e+00
47 0.0000000000000000e+00 0.0000000000000000e+00 0.0000000000000000e+00
48 0.0000000000000000e+00 0.0000000000000000e+00 0.0000000000000000e+00
49 0.0000000000000000e+00 0.0000000000000000e+00 0.0000000000000000e+00
50 0.0000000000000000e+00 0.0000000000000000e+00 0.0000000000000000e+00
51 0.0000000000000000e+00 0.0000000000000000e+00 0.0000000000000000e+00
52 0.0000000000000000e+00 0.0000000000000000e+00 0.0000000000000000e+00
53 0.0000000000000000e+00 0.0000000000000000e+00 0.0000000000000000e+00
54 0.0000000000000000e+00 0.0000000000000000e+00 0.0000000000000000e+00
55 0.0000000000000000e+00 0.0000000000000000e+00 0.0000000000000000e+00
56 0.0000000000000000e+00 0.0000000000000000e+00 0.0000000000000000e+00
57 0.0000000000000000e+00 0.0000000000000000e+00 0.0000000000000000e+00
58 0.0000000000000000e+00 0.0000000000000000e+00 0.0000000000000000e+00
59 0.0000000000000000e+00 0.0000000000000000e+00 0.0000000000000000e+00
60 0.0000000000000000e+00 0.0000000000000000e+00 0.0000000000000000e+00
61 0.0000000000000000e+00 0.0000000000000000e+00 0.0000000000000000e+00
62 0.0000000000000000e+00 0.0000000000000000e+00 0.0000000000000000e+00
63 0.0000000000000000e+00 0.0000000000000000e+00 0.0000000000000000e+00
64 0.0000000000000000e+00 0.0000000000000000e+00 0.0000000000000000e+00
65 0.0000000000000000e+00 0.0000000000000000e+00 0.0000000000000000e+00
66 0.0000000000000000e+00 0.0000000000000000e+00 0.0000000000000000e+00
67 0.0000000000000000e+00 0.0000000000000000e+00 0.0000000000000000e+00
68 0.0000000000000000e+00 0.0000000000000000e+00 0.0000000000000000e+00
69 0.0000000000000000e+00 0.0000000000000000e+00 0.0000000000000000e+00
70 0.0000000000000000e+00 0.0000000000000000e+00 0.0000000000000000e+00
71 0.0000000000000000e+00 0.0000000000000000e+00 0.0000000000000000e+00
72 0.0000000000000000e+00 0.0000000000000000e+00 0.0000000000000000e+00
73 0.0000000000000000e+00 0.0000000000000000e+00 0.0000000000000000e+00
74 0.0000000000000000e+00 0.0000000000000000e+00 0.0000000000000000e+00
