<?xml version="1.0" encoding="ISO-8859-1"?>
<modeling>
 <generator>
  <i name="program" type="string">vasp </i>
  <i name="version" type="string">6.1.0  </i>
  <i name="subversion" type="string">28Jan20 (build Mar 31 2020 17:42:31) gamma-only                       parallel </i>
  <i name="platform" type="string">LinuxIFC </i>
  <i name="date" type="string">2020 04 13 </i>
  <i name="time" type="string">04:57:09 </i>
 </generator>
 <incar>
  <i type="string" name="SYSTEM">"Millerite NiS"</i>
  <i type="int" name="NSIM">     4</i>
  <i type="int" name="NELM">   100</i>
  <i name="ENCUT">    450.00000000</i>
  <i type="string" name="LREAL">A</i>
  <i type="int" name="ISMEAR">     0</i>
  <i type="int" name="NWRITE">     2</i>
  <i type="logical" name="LWAVE"> F  </i>
  <i type="logical" name="LCHARG"> F  </i>
  <i type="int" name="NCORE">     6</i>
  <i type="int" name="NELM">   100</i>
 </incar>
 <structure name="primitive_cell" >
  <crystal>
   <varray name="basis" >
    <v>      10.40335375      -4.78920500       0.00000000 </v>
    <v>       0.00000000       9.57841000       0.00000000 </v>
    <v>       0.00000000       0.00000000      20.64289137 </v>
   </varray>
   <i name="volume">   2057.01432661 </i>
   <varray name="rec_basis" >
    <v>       0.09612285       0.00000000       0.00000000 </v>
    <v>       0.04806142       0.10440146       0.00000000 </v>
    <v>       0.00000000       0.00000000       0.04844283 </v>
   </varray>
  </crystal>
  <varray name="positions" >
   <v>       0.58044680       0.07437514       0.35389447 </v>
   <v>       0.76256081       0.16543215       0.23263653 </v>
   <v>       0.94467483       0.25648915       0.11137858 </v>
   <v>       0.03518947       0.80174648       0.27305584 </v>
   <v>       0.21730349       0.89280348       0.15179789 </v>
   <v>       0.39941750       0.98386049       0.03053995 </v>
   <v>       0.85307546       0.71068947       0.39431379 </v>
   <v>       0.12570412       0.34700380       0.43473311 </v>
   <v>       0.30781813       0.43806081       0.31347516 </v>
   <v>       0.48993215       0.52911781       0.19221721 </v>
   <v>       0.67204616       0.62017482       0.07095926 </v>
   <v>       0.23035801       0.03143375       0.41107827 </v>
   <v>       0.41247203       0.12249075       0.28982032 </v>
   <v>       0.59458604       0.21354776       0.16856237 </v>
   <v>       0.77670006       0.30460477       0.04730442 </v>
   <v>       0.04932872       0.94091910       0.08772374 </v>
   <v>       0.50298667       0.66774808       0.45149758 </v>
   <v>       0.68510069       0.75880508       0.33023963 </v>
   <v>       0.86721470       0.84986209       0.20898169 </v>
   <v>       0.13984337       0.48617642       0.24940100 </v>
   <v>       0.32195738       0.57723343       0.12814306 </v>
   <v>       0.50407140       0.66829044       0.00688511 </v>
   <v>       0.77561534       0.30406241       0.49191690 </v>
   <v>       0.95772935       0.39511942       0.37065895 </v>
   <v>       0.39833278       0.24752413       0.47515242 </v>
   <v>       0.58044680       0.33858114       0.35389447 </v>
   <v>       0.76256081       0.42963815       0.23263653 </v>
   <v>       0.94467483       0.52069515       0.11137858 </v>
   <v>       0.03518947       0.06595248       0.27305584 </v>
   <v>       0.21730349       0.15700948       0.15179789 </v>
   <v>       0.39941750       0.24806649       0.03053995 </v>
   <v>       0.67096144       0.88383846       0.51557174 </v>
   <v>       0.85307546       0.97489547       0.39431379 </v>
   <v>       0.12570412       0.61120980       0.43473311 </v>
   <v>       0.30781813       0.70226681       0.31347516 </v>
   <v>       0.48993215       0.79332382       0.19221721 </v>
   <v>       0.67204616       0.88438082       0.07095926 </v>
   <v>       0.18441112       0.17667530       0.48428080 </v>
   <v>       0.36652513       0.26773231       0.36302285 </v>
   <v>       0.54863915       0.35878931       0.24176490 </v>
   <v>       0.73075316       0.44984632       0.12050696 </v>
   <v>       0.00338182       0.08616065       0.16092627 </v>
   <v>       0.18549584       0.17721766       0.03966833 </v>
   <v>       0.63915379       0.90404664       0.40344217 </v>
   <v>       0.82126781       0.99510365       0.28218422 </v>
   <v>       0.09389647       0.63141797       0.32260354 </v>
   <v>       0.27601049       0.72247498       0.20134559 </v>
   <v>       0.45812450       0.81353199       0.08008764 </v>
   <v>       0.91178246       0.54036097       0.44386148 </v>
   <v>       0.12675994       0.47963471       0.08083863 </v>
   <v>       0.58041790       0.20646369       0.44461248 </v>
   <v>       0.76253191       0.29752070       0.32335453 </v>
   <v>       0.94464593       0.38857770       0.20209658 </v>
   <v>       0.21727459       0.02489203       0.24251590 </v>
   <v>       0.39938860       0.11594904       0.12125795 </v>
   <v>       0.58150262       0.20700605       0.00000000 </v>
   <v>       0.03516057       0.93383503       0.36377384 </v>
   <v>       0.85304656       0.84277802       0.48503179 </v>
   <v>       0.30778923       0.57014936       0.40419316 </v>
   <v>       0.48990325       0.66120636       0.28293521 </v>
   <v>       0.67201726       0.75226337       0.16167726 </v>
   <v>       0.85413128       0.84332038       0.04041932 </v>
   <v>       0.54863915       0.02235931       0.24176490 </v>
   <v>       0.73075316       0.11341632       0.12050696 </v>
   <v>       0.18441112       0.84024530       0.48428080 </v>
   <v>       0.36652513       0.93130231       0.36302285 </v>
   <v>       0.00338182       0.74973065       0.16092627 </v>
   <v>       0.18549584       0.84078766       0.03966833 </v>
   <v>       0.63915379       0.56761664       0.40344217 </v>
   <v>       0.82126781       0.65867365       0.28218422 </v>
   <v>       0.09389647       0.29498797       0.32260354 </v>
   <v>       0.27601049       0.38604498       0.20134559 </v>
   <v>       0.45812450       0.47710199       0.08008764 </v>
   <v>       0.91178246       0.20393097       0.44386148 </v>
  </varray>
 </structure>
 <varray name="primitive_index" >
  <v type="int" >        1 </v>
  <v type="int" >        2 </v>
  <v type="int" >        3 </v>
  <v type="int" >        4 </v>
  <v type="int" >        5 </v>
  <v type="int" >        6 </v>
  <v type="int" >        7 </v>
  <v type="int" >        8 </v>
  <v type="int" >        9 </v>
  <v type="int" >       10 </v>
  <v type="int" >       11 </v>
  <v type="int" >       12 </v>
  <v type="int" >       13 </v>
  <v type="int" >       14 </v>
  <v type="int" >       15 </v>
  <v type="int" >       16 </v>
  <v type="int" >       17 </v>
  <v type="int" >       18 </v>
  <v type="int" >       19 </v>
  <v type="int" >       20 </v>
  <v type="int" >       21 </v>
  <v type="int" >       22 </v>
  <v type="int" >       23 </v>
  <v type="int" >       24 </v>
  <v type="int" >       25 </v>
  <v type="int" >       26 </v>
  <v type="int" >       27 </v>
  <v type="int" >       28 </v>
  <v type="int" >       29 </v>
  <v type="int" >       30 </v>
  <v type="int" >       31 </v>
  <v type="int" >       32 </v>
  <v type="int" >       33 </v>
  <v type="int" >       34 </v>
  <v type="int" >       35 </v>
  <v type="int" >       36 </v>
  <v type="int" >       37 </v>
  <v type="int" >       38 </v>
  <v type="int" >       39 </v>
  <v type="int" >       40 </v>
  <v type="int" >       41 </v>
  <v type="int" >       42 </v>
  <v type="int" >       43 </v>
  <v type="int" >       44 </v>
  <v type="int" >       45 </v>
  <v type="int" >       46 </v>
  <v type="int" >       47 </v>
  <v type="int" >       48 </v>
  <v type="int" >       49 </v>
  <v type="int" >       50 </v>
  <v type="int" >       51 </v>
  <v type="int" >       52 </v>
  <v type="int" >       53 </v>
  <v type="int" >       54 </v>
  <v type="int" >       55 </v>
  <v type="int" >       56 </v>
  <v type="int" >       57 </v>
  <v type="int" >       58 </v>
  <v type="int" >       59 </v>
  <v type="int" >       60 </v>
  <v type="int" >       61 </v>
  <v type="int" >       62 </v>
  <v type="int" >       63 </v>
  <v type="int" >       64 </v>
  <v type="int" >       65 </v>
  <v type="int" >       66 </v>
  <v type="int" >       67 </v>
  <v type="int" >       68 </v>
  <v type="int" >       69 </v>
  <v type="int" >       70 </v>
  <v type="int" >       71 </v>
  <v type="int" >       72 </v>
  <v type="int" >       73 </v>
  <v type="int" >       74 </v>
 </varray>
 <kpoints>
  <generation param="Gamma">
   <v type="int" name="divisions">       1        1        1 </v>
   <v name="usershift">      0.00000000       0.00000000       0.00000000 </v>
   <v name="genvec1">      1.00000000       0.00000000       0.00000000 </v>
   <v name="genvec2">      0.00000000       1.00000000       0.00000000 </v>
   <v name="genvec3">      0.00000000       0.00000000       1.00000000 </v>
   <v name="shift">      0.00000000       0.00000000       0.00000000 </v>
  </generation>
  <varray name="kpointlist" >
   <v>       0.00000000       0.00000000       0.00000000 </v>
  </varray>
  <varray name="weights" >
   <v>       1.00000000 </v>
  </varray>
 </kpoints>
 <parameters>
  <separator name="general" >
   <i type="string" name="SYSTEM">"Millerite NiS"</i>
   <i type="logical" name="LCOMPAT"> F  </i>
  </separator>
  <separator name="electronic" >
   <i type="string" name="PREC">normal</i>
   <i name="ENMAX">    450.00000000</i>
   <i name="ENAUG">    703.44300000</i>
   <i name="EDIFF">      0.00010000</i>
   <i type="int" name="IALGO">    38</i>
   <i type="int" name="IWAVPR">    10</i>
   <i type="int" name="NBANDS">   488</i>
   <i type="int" name="NBANDSLOW">    -1</i>
   <i type="int" name="NBANDSHIGH">    -1</i>
   <i name="NELECT">    814.00000000</i>
   <i type="int" name="TURBO">     0</i>
   <i type="int" name="IRESTART">     0</i>
   <i type="int" name="NREBOOT">     0</i>
   <i type="int" name="NMIN">     0</i>
   <i name="EREF">      0.00000000</i>
   <separator name="electronic smearing" >
    <i type="int" name="ISMEAR">     0</i>
    <i name="SIGMA">      0.20000000</i>
    <i name="KSPACING">      0.50000000</i>
    <i type="logical" name="KGAMMA"> T  </i>
    <i type="logical" name="KBLOWUP"> T  </i>
   </separator>
   <separator name="electronic projectors" >
    <i type="logical" name="LREAL"> T  </i>
    <v name="ROPT">     -0.00050000     -0.00050000</v>
    <i type="int" name="LMAXPAW">  -100</i>
    <i type="int" name="LMAXMIX">     2</i>
    <i type="logical" name="NLSPLINE"> F  </i>
   </separator>
   <separator name="electronic startup" >
    <i type="int" name="ISTART">     0</i>
    <i type="int" name="ICHARG">     2</i>
    <i type="int" name="INIWAV">     1</i>
   </separator>
   <separator name="electronic spin" >
    <i type="int" name="ISPIN">     1</i>
    <i type="logical" name="LNONCOLLINEAR"> F  </i>
    <v name="MAGMOM">      1.00000000      1.00000000      1.00000000      1.00000000      1.00000000      1.00000000      1.00000000      1.00000000      1.00000000      1.00000000      1.00000000      1.00000000      1.00000000      1.00000000      1.00000000      1.00000000      1.00000000      1.00000000      1.00000000      1.00000000
      1.00000000      1.00000000      1.00000000      1.00000000      1.00000000      1.00000000      1.00000000      1.00000000      1.00000000      1.00000000      1.00000000      1.00000000      1.00000000      1.00000000      1.00000000      1.00000000      1.00000000      1.00000000      1.00000000      1.00000000
      1.00000000      1.00000000      1.00000000      1.00000000      1.00000000      1.00000000      1.00000000      1.00000000      1.00000000      1.00000000      1.00000000      1.00000000      1.00000000      1.00000000      1.00000000      1.00000000      1.00000000      1.00000000      1.00000000      1.00000000
      1.00000000      1.00000000      1.00000000      1.00000000      1.00000000      1.00000000      1.00000000      1.00000000      1.00000000      1.00000000      1.00000000      1.00000000      1.00000000      1.00000000</v>
    <i name="NUPDOWN">     -1.00000000</i>
    <i type="logical" name="LSORBIT"> F  </i>
    <v name="SAXIS">      0.00000000      0.00000000      1.00000000</v>
    <i type="logical" name="LSPIRAL"> F  </i>
    <v name="QSPIRAL">      0.00000000      0.00000000      0.00000000</v>
    <i type="logical" name="LZEROZ"> F  </i>
   </separator>
   <separator name="electronic exchange-correlation" >
    <i type="logical" name="LASPH"> F  </i>
    <i type="logical" name="LMETAGGA"> F  </i>
   </separator>
   <separator name="electronic convergence" >
    <i type="int" name="NELM">   100</i>
    <i type="int" name="NELMDL">    -5</i>
    <i type="int" name="NELMIN">     2</i>
    <i name="ENINI">    450.00000000</i>
    <separator name="electronic convergence detail" >
     <i type="logical" name="LDIAG"> T  </i>
     <i type="logical" name="LSUBROT"> F  </i>
     <i name="WEIMIN">      0.00000000</i>
     <i name="EBREAK">      0.00000005</i>
     <i name="DEPER">      0.30000000</i>
     <i type="int" name="NRMM">     4</i>
     <i name="TIME">      0.40000000</i>
    </separator>
   </separator>
   <separator name="electronic mixer" >
    <i name="AMIX">      0.40000000</i>
    <i name="BMIX">      1.00000000</i>
    <i name="AMIN">      0.10000000</i>
    <i name="AMIX_MAG">      1.60000000</i>
    <i name="BMIX_MAG">      1.00000000</i>
    <separator name="electronic mixer details" >
     <i type="int" name="IMIX">     4</i>
     <i type="logical" name="MIXFIRST"> F  </i>
     <i type="int" name="MAXMIX">   -45</i>
     <i name="WC">    100.00000000</i>
     <i type="int" name="INIMIX">     1</i>
     <i type="int" name="MIXPRE">     1</i>
     <i type="int" name="MREMOVE">     5</i>
    </separator>
   </separator>
   <separator name="electronic dipolcorrection" >
    <i type="logical" name="LDIPOL"> F  </i>
    <i type="logical" name="LMONO"> F  </i>
    <i type="int" name="IDIPOL">     0</i>
    <i name="EPSILON">      1.00000000</i>
    <v name="DIPOL">   -100.00000000   -100.00000000   -100.00000000</v>
    <i name="EFIELD">      0.00000000</i>
   </separator>
  </separator>
  <separator name="grids" >
   <i type="int" name="NGX">    60</i>
   <i type="int" name="NGY">    50</i>
   <i type="int" name="NGZ">   108</i>
   <i type="int" name="NGXF">   120</i>
   <i type="int" name="NGYF">   100</i>
   <i type="int" name="NGZF">   216</i>
   <i type="logical" name="ADDGRID"> F  </i>
  </separator>
  <separator name="ionic" >
   <i type="int" name="NSW">     0</i>
   <i type="int" name="IBRION">    -1</i>
   <i type="int" name="MDALGO">     0</i>
   <i type="int" name="ISIF">     2</i>
   <i name="PSTRESS">      0.00000000</i>
   <i name="EDIFFG">      0.00100000</i>
   <i type="int" name="NFREE">     0</i>
   <i name="POTIM">      0.50000000</i>
   <i name="SMASS">     -3.00000000</i>
   <i name="SCALEE">      1.00000000</i>
  </separator>
  <separator name="ionic md" >
   <i name="TEBEG">      0.00010000</i>
   <i name="TEEND">      0.00010000</i>
   <i type="int" name="NBLOCK">     1</i>
   <i type="int" name="KBLOCK">     1</i>
   <i type="int" name="NPACO">   256</i>
   <i name="APACO">     16.00000000</i>
  </separator>
  <separator name="symmetry" >
   <i type="int" name="ISYM">     2</i>
   <i name="SYMPREC">      0.00001000</i>
  </separator>
  <separator name="dos" >
   <i type="int" name="LORBIT">     0</i>
   <v name="RWIGS">     -1.00000000     -1.00000000</v>
   <i type="int" name="NEDOS">   301</i>
   <i name="EMIN">     10.00000000</i>
   <i name="EMAX">    -10.00000000</i>
   <i name="EFERMI">      0.00000000</i>
  </separator>
  <separator name="writing" >
   <i type="int" name="NWRITE">     2</i>
   <i type="logical" name="LWAVE"> F  </i>
   <i type="logical" name="LDOWNSAMPLE"> F  </i>
   <i type="logical" name="LCHARG"> F  </i>
   <i type="logical" name="LPARD"> F  </i>
   <i type="logical" name="LVTOT"> F  </i>
   <i type="logical" name="LVHAR"> F  </i>
   <i type="logical" name="LELF"> F  </i>
   <i type="logical" name="LOPTICS"> F  </i>
   <v name="STM">      0.00000000      0.00000000      0.00000000      0.00000000      0.00000000      0.00000000      0.00000000</v>
  </separator>
  <separator name="performance" >
   <i type="int" name="NPAR">     8</i>
   <i type="int" name="NSIM">     4</i>
   <i type="int" name="NBLK">    -1</i>
   <i type="logical" name="LPLANE"> T  </i>
   <i type="logical" name="LSCALAPACK"> T  </i>
   <i type="logical" name="LSCAAWARE"> F  </i>
   <i type="logical" name="LSCALU"> F  </i>
   <i type="logical" name="LASYNC"> F  </i>
   <i type="logical" name="LORBITALREAL"> F  </i>
  </separator>
  <separator name="miscellaneous" >
   <i type="int" name="IDIOT">     3</i>
   <i type="int" name="PHON_NSTRUCT">    -1</i>
   <i type="logical" name="LMUSIC"> F  </i>
   <v name="POMASS">     58.69000000     32.06600000</v>
   <v name="DARWINR">      0.00000000      0.00000000</v>
   <v name="DARWINV">      1.00000000      1.00000000</v>
   <i type="logical" name="LCORR"> T  </i>
  </separator>
  <i type="logical" name="GGA_COMPAT"> T  </i>
  <i type="logical" name="LBERRY"> F  </i>
  <i type="int" name="ICORELEVEL">     0</i>
  <i type="logical" name="LDAU"> F  </i>
  <i type="int" name="I_CONSTRAINED_M">     0</i>
  <separator name="electronic exchange-correlation" >
   <i type="string" name="GGA">--</i>
   <i type="int" name="VOSKOWN">     0</i>
   <i type="logical" name="LHFCALC"> F  </i>
   <i type="string" name="PRECFOCK"></i>
   <i type="logical" name="LSYMGRAD"> F  </i>
   <i type="logical" name="LHFONE"> F  </i>
   <i type="logical" name="LRHFCALC"> F  </i>
   <i type="logical" name="LTHOMAS"> F  </i>
   <i type="logical" name="LMODELHF"> F  </i>
   <i type="logical" name="LFOCKACE"> F  </i>
   <i name="ENCUT4O">     -1.00000000</i>
   <i type="int" name="EXXOEP">     0</i>
   <i type="int" name="FOURORBIT">     0</i>
   <i name="AEXX">      0.00000000</i>
   <i name="HFALPHA">      0.00000000</i>
   <i name="MCALPHA">      0.00000000</i>
   <i name="ALDAX">      1.00000000</i>
   <i name="AGGAX">      1.00000000</i>
   <i name="ALDAC">      1.00000000</i>
   <i name="AGGAC">      1.00000000</i>
   <i type="int" name="NKREDX">     1</i>
   <i type="int" name="NKREDY">     1</i>
   <i type="int" name="NKREDZ">     1</i>
   <i type="logical" name="SHIFTRED"> F  </i>
   <i type="logical" name="ODDONLY"> F  </i>
   <i type="logical" name="EVENONLY"> F  </i>
   <i type="int" name="LMAXFOCK">     0</i>
   <i type="int" name="NMAXFOCKAE">     0</i>
   <i type="logical" name="LFOCKAEDFT"> F  </i>
   <i name="HFSCREEN">      0.00000000</i>
   <i name="HFSCREENC">      0.00000000</i>
   <i type="int" name="NBANDSGWLOW">     0</i>
  </separator>
  <separator name="vdW DFT" >
   <i type="logical" name="LUSE_VDW"> F  </i>
   <i name="Zab_VDW">     -0.84910000</i>
   <i name="PARAM1">      0.12340000</i>
   <i name="PARAM2">      1.00000000</i>
   <i name="PARAM3">      0.00000000</i>
  </separator>
  <separator name="model GW" >
   <i type="int" name="MODEL_GW">     0</i>
   <i name="MODEL_EPS0">     16.67849454</i>
   <i name="MODEL_ALPHA">      1.00000000</i>
  </separator>
  <separator name="linear response parameters" >
   <i type="logical" name="LEPSILON"> F  </i>
   <i type="logical" name="LRPA"> F  </i>
   <i type="logical" name="LNABLA"> F  </i>
   <i type="logical" name="LVEL"> F  </i>
   <i type="int" name="KINTER">     0</i>
   <i name="CSHIFT">      0.10000000</i>
   <i name="OMEGAMAX">     -1.00000000</i>
   <i name="DEG_THRESHOLD">      0.00200000</i>
   <i name="RTIME">     -0.10000000</i>
   <i name="WPLASMAI">      0.00000000</i>
   <v name="DFIELD">      0.00000000      0.00000000      0.00000000</v>
   <v name="WPLASMA">      0.00000000      0.00000000      0.00000000      0.00000000      0.00000000      0.00000000      0.00000000      0.00000000      0.00000000</v>
  </separator>
  <separator name="orbital magnetization" >
   <i type="logical" name="NUCIND"> F  </i>
   <v name="MAGPOS">      0.00000000      0.00000000      0.00000000</v>
   <i type="logical" name="LNICSALL"> T  </i>
   <i type="logical" name="ORBITALMAG"> F  </i>
   <i type="logical" name="LMAGBLOCH"> F  </i>
   <i type="logical" name="LCHIMAG"> F  </i>
   <i type="logical" name="LGAUGE"> T  </i>
   <i type="int" name="MAGATOM">     0</i>
   <v name="MAGDIPOL">      0.00000000      0.00000000      0.00000000</v>
   <v name="AVECCONST">      0.00000000      0.00000000      0.00000000</v>
  </separator>
  <separator name="response functions" >
   <i type="logical" name="LFINITE_TEMPERATURE"> F  </i>
   <i type="logical" name="LADDER"> F  </i>
   <i type="logical" name="LRPAFORCE"> F  </i>
   <i type="logical" name="LFXC"> F  </i>
   <i type="logical" name="LHARTREE"> T  </i>
   <i type="int" name="IBSE">     0</i>
   <v type="int" name="KPOINT">    -1     0     0     0</v>
   <i type="logical" name="LTCTC"> F  </i>
   <i type="logical" name="LTCTE"> F  </i>
   <i type="logical" name="LTETE"> F  </i>
   <i type="logical" name="LTRIPLET"> F  </i>
   <i type="logical" name="LFXCEPS"> F  </i>
   <i type="logical" name="LFXHEG"> F  </i>
   <i type="int" name="NATURALO">     2</i>
   <i type="logical" name="LHOLEGF"> F  </i>
   <i type="logical" name="L2ORDER"> F  </i>
   <i type="logical" name="LDMP1"> F  </i>
   <i type="logical" name="LMP2LT"> F  </i>
   <i type="logical" name="LSMP2LT"> F  </i>
   <i type="logical" name="LGWLF"> F  </i>
   <i name="ENCUTGW">     -2.00000000</i>
   <i name="ENCUTGWSOFT">     -2.00000000</i>
   <i name="ENCUTLF">     -1.00000000</i>
   <i type="logical" name="LESF_SPLINES"> F  </i>
   <i type="int" name="LMAXMP2">    -1</i>
   <i name="SCISSOR">      0.00000000</i>
   <i type="int" name="NOMEGA">     0</i>
   <i type="int" name="NOMEGAR">     0</i>
   <i type="int" name="NBANDSGW">    -1</i>
   <i type="int" name="NBANDSO">    -1</i>
   <i type="int" name="NBANDSV">    -1</i>
   <i type="int" name="NELM">   100</i>
   <i type="int" name="NELMHF">     1</i>
   <i type="int" name="DIM">     3</i>
   <i type="int" name="IESPILON">     4</i>
   <i type="int" name="ANTIRES">     0</i>
   <i name="OMEGAMAX">    -30.00000000</i>
   <i name="OMEGAMIN">    -30.00000000</i>
   <i name="OMEGATL">   -200.00000000</i>
   <i type="int" name="OMEGAGRID">     0</i>
   <i name="CSHIFT">     -0.10000000</i>
   <i type="logical" name="LSELFENERGY"> F  </i>
   <i type="logical" name="LSPECTRAL"> F  </i>
   <i type="logical" name="LSPECTRALGW"> F  </i>
   <i type="logical" name="LSINGLES"> F  </i>
   <i type="logical" name="LFERMIGW"> F  </i>
   <i type="logical" name="ODDONLYGW"> F  </i>
   <i type="logical" name="EVENONLYGW"> F  </i>
   <i type="int" name="NKREDLFX">     1</i>
   <i type="int" name="NKREDLFY">     1</i>
   <i type="int" name="NKREDLFZ">     1</i>
   <i type="int" name="MAXMEM">  2800</i>
   <i type="int" name="TELESCOPE">     0</i>
   <i type="int" name="NTAUPAR">    -1</i>
   <i type="int" name="NOMEGAPAR">    -1</i>
   <i name="LAMBDA">      1.00000000</i>
  </separator>
  <separator name="External order field" >
   <i name="OFIELD_KAPPA">      0.00000000</i>
   <v name="OFIELD_K">      0.00000000      0.00000000      0.00000000</v>
   <i name="OFIELD_Q6_NEAR">      0.00000000</i>
   <i name="OFIELD_Q6_FAR">      0.00000000</i>
   <i name="OFIELD_A">      0.00000000</i>
  </separator>
 </parameters>
 <atominfo>
  <atoms>      74 </atoms>
  <types>       2 </types>
  <array name="atoms" >
   <dimension dim="1">ion</dimension>
   <field type="string">element</field>
   <field type="int">atomtype</field>
   <set>
    <rc><c>Ni</c><c>   1</c></rc>
    <rc><c>Ni</c><c>   1</c></rc>
    <rc><c>Ni</c><c>   1</c></rc>
    <rc><c>Ni</c><c>   1</c></rc>
    <rc><c>Ni</c><c>   1</c></rc>
    <rc><c>Ni</c><c>   1</c></rc>
    <rc><c>Ni</c><c>   1</c></rc>
    <rc><c>Ni</c><c>   1</c></rc>
    <rc><c>Ni</c><c>   1</c></rc>
    <rc><c>Ni</c><c>   1</c></rc>
    <rc><c>Ni</c><c>   1</c></rc>
    <rc><c>Ni</c><c>   1</c></rc>
    <rc><c>Ni</c><c>   1</c></rc>
    <rc><c>Ni</c><c>   1</c></rc>
    <rc><c>Ni</c><c>   1</c></rc>
    <rc><c>Ni</c><c>   1</c></rc>
    <rc><c>Ni</c><c>   1</c></rc>
    <rc><c>Ni</c><c>   1</c></rc>
    <rc><c>Ni</c><c>   1</c></rc>
    <rc><c>Ni</c><c>   1</c></rc>
    <rc><c>Ni</c><c>   1</c></rc>
    <rc><c>Ni</c><c>   1</c></rc>
    <rc><c>Ni</c><c>   1</c></rc>
    <rc><c>Ni</c><c>   1</c></rc>
    <rc><c>Ni</c><c>   1</c></rc>
    <rc><c>Ni</c><c>   1</c></rc>
    <rc><c>Ni</c><c>   1</c></rc>
    <rc><c>Ni</c><c>   1</c></rc>
    <rc><c>Ni</c><c>   1</c></rc>
    <rc><c>Ni</c><c>   1</c></rc>
    <rc><c>Ni</c><c>   1</c></rc>
    <rc><c>Ni</c><c>   1</c></rc>
    <rc><c>Ni</c><c>   1</c></rc>
    <rc><c>Ni</c><c>   1</c></rc>
    <rc><c>Ni</c><c>   1</c></rc>
    <rc><c>Ni</c><c>   1</c></rc>
    <rc><c>Ni</c><c>   1</c></rc>
    <rc><c>S </c><c>   2</c></rc>
    <rc><c>S </c><c>   2</c></rc>
    <rc><c>S </c><c>   2</c></rc>
    <rc><c>S </c><c>   2</c></rc>
    <rc><c>S </c><c>   2</c></rc>
    <rc><c>S </c><c>   2</c></rc>
    <rc><c>S </c><c>   2</c></rc>
    <rc><c>S </c><c>   2</c></rc>
    <rc><c>S </c><c>   2</c></rc>
    <rc><c>S </c><c>   2</c></rc>
    <rc><c>S </c><c>   2</c></rc>
    <rc><c>S </c><c>   2</c></rc>
    <rc><c>S </c><c>   2</c></rc>
    <rc><c>S </c><c>   2</c></rc>
    <rc><c>S </c><c>   2</c></rc>
    <rc><c>S </c><c>   2</c></rc>
    <rc><c>S </c><c>   2</c></rc>
    <rc><c>S </c><c>   2</c></rc>
    <rc><c>S </c><c>   2</c></rc>
    <rc><c>S </c><c>   2</c></rc>
    <rc><c>S </c><c>   2</c></rc>
    <rc><c>S </c><c>   2</c></rc>
    <rc><c>S </c><c>   2</c></rc>
    <rc><c>S </c><c>   2</c></rc>
    <rc><c>S </c><c>   2</c></rc>
    <rc><c>S </c><c>   2</c></rc>
    <rc><c>S </c><c>   2</c></rc>
    <rc><c>S </c><c>   2</c></rc>
    <rc><c>S </c><c>   2</c></rc>
    <rc><c>S </c><c>   2</c></rc>
    <rc><c>S </c><c>   2</c></rc>
    <rc><c>S </c><c>   2</c></rc>
    <rc><c>S </c><c>   2</c></rc>
    <rc><c>S </c><c>   2</c></rc>
    <rc><c>S </c><c>   2</c></rc>
    <rc><c>S </c><c>   2</c></rc>
    <rc><c>S </c><c>   2</c></rc>
   </set>
  </array>
  <array name="atomtypes" >
   <dimension dim="1">type</dimension>
   <field type="int">atomspertype</field>
   <field type="string">element</field>
   <field>mass</field>
   <field>valence</field>
   <field type="string">pseudopotential</field>
   <set>
    <rc><c>  37</c><c>Ni</c><c>     58.69000000</c><c>     16.00000000</c><c>  PAW_PBE Ni_pv 06Sep2000               </c></rc>
    <rc><c>  37</c><c>S </c><c>     32.06600000</c><c>      6.00000000</c><c>  PAW_PBE S 06Sep2000                   </c></rc>
   </set>
  </array>
 </atominfo>
 <structure name="initialpos" >
  <crystal>
   <varray name="basis" >
    <v>      10.40335375      -4.78920500       0.00000000 </v>
    <v>       0.00000000       9.57841000       0.00000000 </v>
    <v>       0.00000000       0.00000000      20.64289137 </v>
   </varray>
   <i name="volume">   2057.01432661 </i>
   <varray name="rec_basis" >
    <v>       0.09612285       0.00000000       0.00000000 </v>
    <v>       0.04806142       0.10440146       0.00000000 </v>
    <v>       0.00000000       0.00000000       0.04844283 </v>
   </varray>
  </crystal>
  <varray name="positions" >
   <v>       0.58044680       0.07437514       0.35389447 </v>
   <v>       0.76256081       0.16543215       0.23263653 </v>
   <v>       0.94467483       0.25648915       0.11137858 </v>
   <v>       0.03518947       0.80174648       0.27305584 </v>
   <v>       0.21730349       0.89280348       0.15179789 </v>
   <v>       0.39941750       0.98386049       0.03053995 </v>
   <v>       0.85307546       0.71068947       0.39431379 </v>
   <v>       0.12570412       0.34700380       0.43473311 </v>
   <v>       0.30781813       0.43806081       0.31347516 </v>
   <v>       0.48993215       0.52911781       0.19221721 </v>
   <v>       0.67204616       0.62017482       0.07095926 </v>
   <v>       0.23035801       0.03143375       0.41107827 </v>
   <v>       0.41247203       0.12249075       0.28982032 </v>
   <v>       0.59458604       0.21354776       0.16856237 </v>
   <v>       0.77670006       0.30460477       0.04730442 </v>
   <v>       0.04932872       0.94091910       0.08772374 </v>
   <v>       0.50298667       0.66774808       0.45149758 </v>
   <v>       0.68510069       0.75880508       0.33023963 </v>
   <v>       0.86721470       0.84986209       0.20898169 </v>
   <v>       0.13984337       0.48617642       0.24940100 </v>
   <v>       0.32195738       0.57723343       0.12814306 </v>
   <v>       0.50407140       0.66829044       0.00688511 </v>
   <v>       0.77561534       0.30406241       0.49191690 </v>
   <v>       0.95772935       0.39511942       0.37065895 </v>
   <v>       0.39833278       0.24752413       0.47515242 </v>
   <v>       0.58044680       0.33858114       0.35389447 </v>
   <v>       0.76256081       0.42963815       0.23263653 </v>
   <v>       0.94467483       0.52069515       0.11137858 </v>
   <v>       0.03518947       0.06595248       0.27305584 </v>
   <v>       0.21730349       0.15700948       0.15179789 </v>
   <v>       0.39941750       0.24806649       0.03053995 </v>
   <v>       0.67096144       0.88383846       0.51557174 </v>
   <v>       0.85307546       0.97489547       0.39431379 </v>
   <v>       0.12570412       0.61120980       0.43473311 </v>
   <v>       0.30781813       0.70226681       0.31347516 </v>
   <v>       0.48993215       0.79332382       0.19221721 </v>
   <v>       0.67204616       0.88438082       0.07095926 </v>
   <v>       0.18441112       0.17667530       0.48428080 </v>
   <v>       0.36652513       0.26773231       0.36302285 </v>
   <v>       0.54863915       0.35878931       0.24176490 </v>
   <v>       0.73075316       0.44984632       0.12050696 </v>
   <v>       0.00338182       0.08616065       0.16092627 </v>
   <v>       0.18549584       0.17721766       0.03966833 </v>
   <v>       0.63915379       0.90404664       0.40344217 </v>
   <v>       0.82126781       0.99510365       0.28218422 </v>
   <v>       0.09389647       0.63141797       0.32260354 </v>
   <v>       0.27601049       0.72247498       0.20134559 </v>
   <v>       0.45812450       0.81353199       0.08008764 </v>
   <v>       0.91178246       0.54036097       0.44386148 </v>
   <v>       0.12675994       0.47963471       0.08083863 </v>
   <v>       0.58041790       0.20646369       0.44461248 </v>
   <v>       0.76253191       0.29752070       0.32335453 </v>
   <v>       0.94464593       0.38857770       0.20209658 </v>
   <v>       0.21727459       0.02489203       0.24251590 </v>
   <v>       0.39938860       0.11594904       0.12125795 </v>
   <v>       0.58150262       0.20700605       0.00000000 </v>
   <v>       0.03516057       0.93383503       0.36377384 </v>
   <v>       0.85304656       0.84277802       0.48503179 </v>
   <v>       0.30778923       0.57014936       0.40419316 </v>
   <v>       0.48990325       0.66120636       0.28293521 </v>
   <v>       0.67201726       0.75226337       0.16167726 </v>
   <v>       0.85413128       0.84332038       0.04041932 </v>
   <v>       0.54863915       0.02235931       0.24176490 </v>
   <v>       0.73075316       0.11341632       0.12050696 </v>
   <v>       0.18441112       0.84024530       0.48428080 </v>
   <v>       0.36652513       0.93130231       0.36302285 </v>
   <v>       0.00338182       0.74973065       0.16092627 </v>
   <v>       0.18549584       0.84078766       0.03966833 </v>
   <v>       0.63915379       0.56761664       0.40344217 </v>
   <v>       0.82126781       0.65867365       0.28218422 </v>
   <v>       0.09389647       0.29498797       0.32260354 </v>
   <v>       0.27601049       0.38604498       0.20134559 </v>
   <v>       0.45812450       0.47710199       0.08008764 </v>
   <v>       0.91178246       0.20393097       0.44386148 </v>
  </varray>
 </structure>
 <calculation>
  <scstep>
   <time name="dav">    2.26    2.26</time>
   <time name="total">    2.31    2.32</time>
   <energy>
    <i name="alphaZ">   1910.25942632 </i>
    <i name="ewald"> 178085.72893948 </i>
    <i name="hartreedc">-303926.48645930 </i>
    <i name="XCdc">   3753.72258377 </i>
    <i name="pawpsdc"> 115860.90926010 </i>
    <i name="pawaedc">-120909.33166199 </i>
    <i name="eentropy">     -0.39587947 </i>
    <i name="bandstr">  -4619.33313614 </i>
    <i name="atom"> 139780.45519414 </i>
    <i name="e_fr_energy">   9935.52826690 </i>
    <i name="e_wo_entrp">   9935.92414637 </i>
    <i name="e_0_energy">   9935.72620664 </i>
   </energy>
  </scstep>
  <scstep>
   <time name="dav">    1.99    2.00</time>
   <time name="total">    2.00    2.00</time>
   <energy>
    <i name="e_fr_energy">    614.48847284 </i>
    <i name="e_wo_entrp">    615.30774428 </i>
    <i name="e_0_energy">    614.89810856 </i>
   </energy>
  </scstep>
  <scstep>
   <time name="dav">    2.11    2.11</time>
   <time name="total">    2.11    2.12</time>
   <energy>
    <i name="e_fr_energy">   -352.87210635 </i>
    <i name="e_wo_entrp">   -351.53489262 </i>
    <i name="e_0_energy">   -352.20349948 </i>
   </energy>
  </scstep>
  <scstep>
   <time name="dav">    2.16    2.16</time>
   <time name="total">    2.16    2.17</time>
   <energy>
    <i name="e_fr_energy">   -415.72802682 </i>
    <i name="e_wo_entrp">   -414.34849512 </i>
    <i name="e_0_energy">   -415.03826097 </i>
   </energy>
  </scstep>
  <scstep>
   <time name="dav">    2.31    2.32</time>
   <time name="total">    2.36    2.37</time>
   <energy>
    <i name="e_fr_energy">   -418.10072170 </i>
    <i name="e_wo_entrp">   -416.72005069 </i>
    <i name="e_0_energy">   -417.41038619 </i>
   </energy>
  </scstep>
  <scstep>
   <time name="dav">    2.14    2.15</time>
   <time name="total">    2.24    2.25</time>
   <energy>
    <i name="e_fr_energy">   -502.74390066 </i>
    <i name="e_wo_entrp">   -501.68494905 </i>
    <i name="e_0_energy">   -502.21442486 </i>
   </energy>
  </scstep>
  <scstep>
   <time name="dav">    2.13    2.13</time>
   <time name="total">    2.22    2.23</time>
   <energy>
    <i name="e_fr_energy">   -385.51252322 </i>
    <i name="e_wo_entrp">   -384.60869121 </i>
    <i name="e_0_energy">   -385.06060722 </i>
   </energy>
  </scstep>
  <scstep>
   <time name="dav">    2.47    2.47</time>
   <time name="total">    2.57    2.58</time>
   <energy>
    <i name="e_fr_energy">   -461.90408907 </i>
    <i name="e_wo_entrp">   -460.86795785 </i>
    <i name="e_0_energy">   -461.38602346 </i>
   </energy>
  </scstep>
  <scstep>
   <time name="dav">    2.30    2.31</time>
   <time name="total">    2.40    2.40</time>
   <energy>
    <i name="e_fr_energy">   -388.38647240 </i>
    <i name="e_wo_entrp">   -386.79326901 </i>
    <i name="e_0_energy">   -387.58987071 </i>
   </energy>
  </scstep>
  <scstep>
   <time name="dav">    2.47    2.47</time>
   <time name="total">    2.56    2.57</time>
   <energy>
    <i name="e_fr_energy">   -390.15434787 </i>
    <i name="e_wo_entrp">   -389.07495945 </i>
    <i name="e_0_energy">   -389.61465366 </i>
   </energy>
  </scstep>
  <scstep>
   <time name="dav">    2.43    2.44</time>
   <time name="total">    2.53    2.54</time>
   <energy>
    <i name="e_fr_energy">   -385.80548142 </i>
    <i name="e_wo_entrp">   -384.35711097 </i>
    <i name="e_0_energy">   -385.08129619 </i>
   </energy>
  </scstep>
  <scstep>
   <time name="dav">    2.38    2.38</time>
   <time name="total">    2.48    2.49</time>
   <energy>
    <i name="e_fr_energy">   -375.21355998 </i>
    <i name="e_wo_entrp">   -374.20747260 </i>
    <i name="e_0_energy">   -374.71051629 </i>
   </energy>
  </scstep>
  <scstep>
   <time name="dav">    2.37    2.37</time>
   <time name="total">    2.47    2.47</time>
   <energy>
    <i name="e_fr_energy">   -373.09428458 </i>
    <i name="e_wo_entrp">   -372.09138618 </i>
    <i name="e_0_energy">   -372.59283538 </i>
   </energy>
  </scstep>
  <scstep>
   <time name="dav">    2.28    2.29</time>
   <time name="total">    2.38    2.40</time>
   <energy>
    <i name="e_fr_energy">   -369.82097974 </i>
    <i name="e_wo_entrp">   -368.81911105 </i>
    <i name="e_0_energy">   -369.32004540 </i>
   </energy>
  </scstep>
  <scstep>
   <time name="dav">    2.33    2.34</time>
   <time name="total">    2.43    2.44</time>
   <energy>
    <i name="e_fr_energy">   -368.53315153 </i>
    <i name="e_wo_entrp">   -367.50058062 </i>
    <i name="e_0_energy">   -368.01686607 </i>
   </energy>
  </scstep>
  <scstep>
   <time name="dav">    2.33    2.34</time>
   <time name="total">    2.43    2.43</time>
   <energy>
    <i name="e_fr_energy">   -367.92479162 </i>
    <i name="e_wo_entrp">   -366.86469890 </i>
    <i name="e_0_energy">   -367.39474526 </i>
   </energy>
  </scstep>
  <scstep>
   <time name="dav">    2.43    2.44</time>
   <time name="total">    2.53    2.54</time>
   <energy>
    <i name="e_fr_energy">   -367.40587459 </i>
    <i name="e_wo_entrp">   -366.35272533 </i>
    <i name="e_0_energy">   -366.87929996 </i>
   </energy>
  </scstep>
  <scstep>
   <time name="dav">    2.37    2.38</time>
   <time name="total">    2.47    2.48</time>
   <energy>
    <i name="e_fr_energy">   -367.11225462 </i>
    <i name="e_wo_entrp">   -366.01645314 </i>
    <i name="e_0_energy">   -366.56435388 </i>
   </energy>
  </scstep>
  <scstep>
   <time name="dav">    2.40    2.40</time>
   <time name="total">    2.49    2.50</time>
   <energy>
    <i name="e_fr_energy">   -366.92315842 </i>
    <i name="e_wo_entrp">   -365.82997151 </i>
    <i name="e_0_energy">   -366.37656497 </i>
   </energy>
  </scstep>
  <scstep>
   <time name="dav">    2.42    2.43</time>
   <time name="total">    2.52    2.52</time>
   <energy>
    <i name="e_fr_energy">   -366.74807701 </i>
    <i name="e_wo_entrp">   -365.62738294 </i>
    <i name="e_0_energy">   -366.18772997 </i>
   </energy>
  </scstep>
  <scstep>
   <time name="dav">    2.54    2.55</time>
   <time name="total">    2.64    2.65</time>
   <energy>
    <i name="e_fr_energy">   -366.63661220 </i>
    <i name="e_wo_entrp">   -365.53459245 </i>
    <i name="e_0_energy">   -366.08560232 </i>
   </energy>
  </scstep>
  <scstep>
   <time name="dav">    2.54    2.55</time>
   <time name="total">    2.64    2.65</time>
   <energy>
    <i name="e_fr_energy">   -366.55217629 </i>
    <i name="e_wo_entrp">   -365.40335325 </i>
    <i name="e_0_energy">   -365.97776477 </i>
   </energy>
  </scstep>
  <scstep>
   <time name="dav">    2.33    2.33</time>
   <time name="total">    2.42    2.43</time>
   <energy>
    <i name="e_fr_energy">   -366.44688266 </i>
    <i name="e_wo_entrp">   -365.29200153 </i>
    <i name="e_0_energy">   -365.86944209 </i>
   </energy>
  </scstep>
  <scstep>
   <time name="dav">    2.43    2.44</time>
   <time name="total">    2.53    2.54</time>
   <energy>
    <i name="e_fr_energy">   -366.46018448 </i>
    <i name="e_wo_entrp">   -365.28757903 </i>
    <i name="e_0_energy">   -365.87388176 </i>
   </energy>
  </scstep>
  <scstep>
   <time name="dav">    2.33    2.34</time>
   <time name="total">    2.43    2.43</time>
   <energy>
    <i name="e_fr_energy">   -366.44150301 </i>
    <i name="e_wo_entrp">   -365.27742398 </i>
    <i name="e_0_energy">   -365.85946350 </i>
   </energy>
  </scstep>
  <scstep>
   <time name="dav">    2.42    2.43</time>
   <time name="total">    2.52    2.53</time>
   <energy>
    <i name="e_fr_energy">   -366.45378223 </i>
    <i name="e_wo_entrp">   -365.29553399 </i>
    <i name="e_0_energy">   -365.87465811 </i>
   </energy>
  </scstep>
  <scstep>
   <time name="dav">    2.40    2.40</time>
   <time name="total">    2.50    2.50</time>
   <energy>
    <i name="e_fr_energy">   -366.44492759 </i>
    <i name="e_wo_entrp">   -365.29404723 </i>
    <i name="e_0_energy">   -365.86948741 </i>
   </energy>
  </scstep>
  <scstep>
   <time name="dav">    2.37    2.38</time>
   <time name="total">    2.47    2.48</time>
   <energy>
    <i name="e_fr_energy">   -366.43824174 </i>
    <i name="e_wo_entrp">   -365.28610877 </i>
    <i name="e_0_energy">   -365.86217526 </i>
   </energy>
  </scstep>
  <scstep>
   <time name="dav">    2.43    2.44</time>
   <time name="total">    2.53    2.54</time>
   <energy>
    <i name="e_fr_energy">   -366.43694495 </i>
    <i name="e_wo_entrp">   -365.28609667 </i>
    <i name="e_0_energy">   -365.86152081 </i>
   </energy>
  </scstep>
  <scstep>
   <time name="dav">    2.37    2.38</time>
   <time name="total">    2.47    2.48</time>
   <energy>
    <i name="e_fr_energy">   -366.43493748 </i>
    <i name="e_wo_entrp">   -365.27695875 </i>
    <i name="e_0_energy">   -365.85594812 </i>
   </energy>
  </scstep>
  <scstep>
   <time name="dav">    2.28    2.28</time>
   <time name="total">    2.38    2.38</time>
   <energy>
    <i name="e_fr_energy">   -366.43547584 </i>
    <i name="e_wo_entrp">   -365.28000089 </i>
    <i name="e_0_energy">   -365.85773836 </i>
   </energy>
  </scstep>
  <scstep>
   <time name="dav">    2.02    2.03</time>
   <time name="total">    2.12    2.12</time>
   <energy>
    <i name="e_fr_energy">   -366.43519421 </i>
    <i name="e_wo_entrp">   -365.27867220 </i>
    <i name="e_0_energy">   -365.85693321 </i>
   </energy>
  </scstep>
  <scstep>
   <time name="dav">    1.80    1.81</time>
   <time name="total">    1.90    1.91</time>
   <energy>
    <i name="e_fr_energy">   -366.43581530 </i>
    <i name="e_wo_entrp">   -365.27950314 </i>
    <i name="e_0_energy">   -365.85765922 </i>
   </energy>
  </scstep>
  <scstep>
   <time name="dav">    1.72    1.73</time>
   <time name="total">    1.82    1.83</time>
   <energy>
    <i name="e_fr_energy">   -366.43605885 </i>
    <i name="e_wo_entrp">   -365.28067076 </i>
    <i name="e_0_energy">   -365.85836480 </i>
   </energy>
  </scstep>
  <scstep>
   <time name="dav">    1.47    1.48</time>
   <time name="total">    1.57    1.58</time>
   <energy>
    <i name="e_fr_energy">   -366.43642954 </i>
    <i name="e_wo_entrp">   -365.28094992 </i>
    <i name="e_0_energy">   -365.85868973 </i>
   </energy>
  </scstep>
  <scstep>
   <time name="dav">    1.41    1.42</time>
   <time name="total">    1.52    1.52</time>
   <energy>
    <i name="e_fr_energy">   -366.43657343 </i>
    <i name="e_wo_entrp">   -365.28108443 </i>
    <i name="e_0_energy">   -365.85882893 </i>
   </energy>
  </scstep>
  <scstep>
   <time name="dav">    1.38    1.38</time>
   <time name="total">    1.48    1.49</time>
   <energy>
    <i name="e_fr_energy">   -366.43697879 </i>
    <i name="e_wo_entrp">   -365.28129371 </i>
    <i name="e_0_energy">   -365.85913625 </i>
   </energy>
  </scstep>
  <scstep>
   <time name="dav">    1.40    1.40</time>
   <time name="total">    1.50    1.50</time>
   <energy>
    <i name="e_fr_energy">   -366.43722794 </i>
    <i name="e_wo_entrp">   -365.28143756 </i>
    <i name="e_0_energy">   -365.85933275 </i>
   </energy>
  </scstep>
  <scstep>
   <time name="dav">    1.55    1.55</time>
   <time name="total">    1.65    1.65</time>
   <energy>
    <i name="e_fr_energy">   -366.43819265 </i>
    <i name="e_wo_entrp">   -365.28263691 </i>
    <i name="e_0_energy">   -365.86041478 </i>
   </energy>
  </scstep>
  <scstep>
   <time name="dav">    1.40    1.40</time>
   <time name="total">    1.50    1.50</time>
   <energy>
    <i name="e_fr_energy">   -366.43843435 </i>
    <i name="e_wo_entrp">   -365.28286464 </i>
    <i name="e_0_energy">   -365.86064950 </i>
   </energy>
  </scstep>
  <scstep>
   <time name="dav">    1.38    1.38</time>
   <time name="total">    1.48    1.48</time>
   <energy>
    <i name="e_fr_energy">   -366.43877094 </i>
    <i name="e_wo_entrp">   -365.28322257 </i>
    <i name="e_0_energy">   -365.86099675 </i>
   </energy>
  </scstep>
  <scstep>
   <time name="dav">    1.39    1.40</time>
   <time name="total">    1.45    1.45</time>
   <energy>
    <i name="alphaZ">   1910.25942632 </i>
    <i name="ewald"> 178085.72893948 </i>
    <i name="hartreedc">-303175.25097402 </i>
    <i name="XCdc">   3723.40890394 </i>
    <i name="pawpsdc"> 134297.40687744 </i>
    <i name="pawaedc">-139406.60626826 </i>
    <i name="eentropy">     -1.15550173 </i>
    <i name="bandstr"> -15580.68544841 </i>
    <i name="atom"> 139780.45519414 </i>
    <i name="e_fr_energy">   -366.43885111 </i>
    <i name="e_wo_entrp">   -365.28334937 </i>
    <i name="e_0_energy">   -365.86110024 </i>
   </energy>
  </scstep>
  <structure>
   <crystal>
    <varray name="basis" >
     <v>      10.40335375      -4.78920500       0.00000000 </v>
     <v>       0.00000000       9.57841000       0.00000000 </v>
     <v>       0.00000000       0.00000000      20.64289137 </v>
    </varray>
    <i name="volume">   2057.01432661 </i>
    <varray name="rec_basis" >
     <v>       0.09612285       0.00000000       0.00000000 </v>
     <v>       0.04806142       0.10440146       0.00000000 </v>
     <v>       0.00000000       0.00000000       0.04844283 </v>
    </varray>
   </crystal>
   <varray name="positions" >
    <v>       0.58044680       0.07437514       0.35389447 </v>
    <v>       0.76256081       0.16543215       0.23263653 </v>
    <v>       0.94467483       0.25648915       0.11137858 </v>
    <v>       0.03518947       0.80174648       0.27305584 </v>
    <v>       0.21730349       0.89280348       0.15179789 </v>
    <v>       0.39941750       0.98386049       0.03053995 </v>
    <v>       0.85307546       0.71068947       0.39431379 </v>
    <v>       0.12570412       0.34700380       0.43473311 </v>
    <v>       0.30781813       0.43806081       0.31347516 </v>
    <v>       0.48993215       0.52911781       0.19221721 </v>
    <v>       0.67204616       0.62017482       0.07095926 </v>
    <v>       0.23035801       0.03143375       0.41107827 </v>
    <v>       0.41247203       0.12249075       0.28982032 </v>
    <v>       0.59458604       0.21354776       0.16856237 </v>
    <v>       0.77670006       0.30460477       0.04730442 </v>
    <v>       0.04932872       0.94091910       0.08772374 </v>
    <v>       0.50298667       0.66774808       0.45149758 </v>
    <v>       0.68510069       0.75880508       0.33023963 </v>
    <v>       0.86721470       0.84986209       0.20898169 </v>
    <v>       0.13984337       0.48617642       0.24940100 </v>
    <v>       0.32195738       0.57723343       0.12814306 </v>
    <v>       0.50407140       0.66829044       0.00688511 </v>
    <v>       0.77561534       0.30406241       0.49191690 </v>
    <v>       0.95772935       0.39511942       0.37065895 </v>
    <v>       0.39833278       0.24752413       0.47515242 </v>
    <v>       0.58044680       0.33858114       0.35389447 </v>
    <v>       0.76256081       0.42963815       0.23263653 </v>
    <v>       0.94467483       0.52069515       0.11137858 </v>
    <v>       0.03518947       0.06595248       0.27305584 </v>
    <v>       0.21730349       0.15700948       0.15179789 </v>
    <v>       0.39941750       0.24806649       0.03053995 </v>
    <v>       0.67096144       0.88383846       0.51557174 </v>
    <v>       0.85307546       0.97489547       0.39431379 </v>
    <v>       0.12570412       0.61120980       0.43473311 </v>
    <v>       0.30781813       0.70226681       0.31347516 </v>
    <v>       0.48993215       0.79332382       0.19221721 </v>
    <v>       0.67204616       0.88438082       0.07095926 </v>
    <v>       0.18441112       0.17667530       0.48428080 </v>
    <v>       0.36652513       0.26773231       0.36302285 </v>
    <v>       0.54863915       0.35878931       0.24176490 </v>
    <v>       0.73075316       0.44984632       0.12050696 </v>
    <v>       0.00338182       0.08616065       0.16092627 </v>
    <v>       0.18549584       0.17721766       0.03966833 </v>
    <v>       0.63915379       0.90404664       0.40344217 </v>
    <v>       0.82126781       0.99510365       0.28218422 </v>
    <v>       0.09389647       0.63141797       0.32260354 </v>
    <v>       0.27601049       0.72247498       0.20134559 </v>
    <v>       0.45812450       0.81353199       0.08008764 </v>
    <v>       0.91178246       0.54036097       0.44386148 </v>
    <v>       0.12675994       0.47963471       0.08083863 </v>
    <v>       0.58041790       0.20646369       0.44461248 </v>
    <v>       0.76253191       0.29752070       0.32335453 </v>
    <v>       0.94464593       0.38857770       0.20209658 </v>
    <v>       0.21727459       0.02489203       0.24251590 </v>
    <v>       0.39938860       0.11594904       0.12125795 </v>
    <v>       0.58150262       0.20700605       0.00000000 </v>
    <v>       0.03516057       0.93383503       0.36377384 </v>
    <v>       0.85304656       0.84277802       0.48503179 </v>
    <v>       0.30778923       0.57014936       0.40419316 </v>
    <v>       0.48990325       0.66120636       0.28293521 </v>
    <v>       0.67201726       0.75226337       0.16167726 </v>
    <v>       0.85413128       0.84332038       0.04041932 </v>
    <v>       0.54863915       0.02235931       0.24176490 </v>
    <v>       0.73075316       0.11341632       0.12050696 </v>
    <v>       0.18441112       0.84024530       0.48428080 </v>
    <v>       0.36652513       0.93130231       0.36302285 </v>
    <v>       0.00338182       0.74973065       0.16092627 </v>
    <v>       0.18549584       0.84078766       0.03966833 </v>
    <v>       0.63915379       0.56761664       0.40344217 </v>
    <v>       0.82126781       0.65867365       0.28218422 </v>
    <v>       0.09389647       0.29498797       0.32260354 </v>
    <v>       0.27601049       0.38604498       0.20134559 </v>
    <v>       0.45812450       0.47710199       0.08008764 </v>
    <v>       0.91178246       0.20393097       0.44386148 </v>
   </varray>
  </structure>
  <varray name="forces" >
   <v>      -0.39013777       0.07023105       0.15262719 </v>
   <v>       0.14805915       0.00806688       0.02143235 </v>
   <v>       0.44350048       0.58126320       0.66360573 </v>
   <v>      -0.03315661      -0.02727299       0.13536664 </v>
   <v>       0.01291163       0.02774430      -0.22728372 </v>
   <v>       0.08543369       0.51354776       0.85255542 </v>
   <v>      -0.28904175       0.00460921       0.42173553 </v>
   <v>      -0.13994139      -0.64777815      -0.34514094 </v>
   <v>      -0.07222216      -0.03763517       0.13015936 </v>
   <v>       0.06957350       0.10632251       0.03771667 </v>
   <v>       0.56152518       0.34566510       0.80020039 </v>
   <v>       0.11928193      -0.34479778       0.54598561 </v>
   <v>       0.17301956      -0.09305107       0.04302929 </v>
   <v>       0.16698649       0.02801126      -0.05009549 </v>
   <v>      -1.51084182       0.01361404       0.85576706 </v>
   <v>       0.37785969       0.00174646      -0.71128036 </v>
   <v>       0.63997258       0.10650440      -1.17124970 </v>
   <v>      -0.11909570      -0.17805432       0.16791597 </v>
   <v>       0.23054222      -0.00603027       0.18703663 </v>
   <v>       0.03214558      -0.00218847       0.17310806 </v>
   <v>      -0.15289711       0.00048501      -0.39773702 </v>
   <v>      -0.32077842      -0.00595360       1.74148877 </v>
   <v>       0.29434329      -0.10557236      -1.76968542 </v>
   <v>       0.12911735       0.04182788       0.32812698 </v>
   <v>      -0.47405164      -0.29926260      -1.36054849 </v>
   <v>      -0.00664090       0.00451593       0.14246393 </v>
   <v>       0.15015800      -0.01271150       0.01919876 </v>
   <v>       0.45407825      -0.58566078       0.64867066 </v>
   <v>      -0.05304000       0.01827422       0.12363356 </v>
   <v>      -0.01178146      -0.03674608      -0.23151520 </v>
   <v>       0.06511908      -0.51765070       0.85184019 </v>
   <v>       0.93659965      -0.89608887      -2.10310158 </v>
   <v>       0.04447225      -0.07865639       0.40021918 </v>
   <v>       0.03774332       1.00600847      -0.10092810 </v>
   <v>      -0.14755620       0.12370910       0.09808580 </v>
   <v>       0.08587256      -0.11170574       0.00976343 </v>
   <v>       0.55906967      -0.35502455       0.80576746 </v>
   <v>       1.11664615       0.30370631      -0.04424092 </v>
   <v>      -0.00942522      -0.42661859       0.23508384 </v>
   <v>      -0.15392410      -0.15219516      -0.09561760 </v>
   <v>       0.64163948      -0.08263806      -0.94488815 </v>
   <v>      -0.04509210      -0.12604899      -0.28313744 </v>
   <v>       0.26027476      -0.28900651       0.61772609 </v>
   <v>      -0.45408176      -0.32311253       1.18015037 </v>
   <v>      -0.15156473      -0.07446740      -0.03505108 </v>
   <v>       0.09006366      -0.26407361      -0.21975752 </v>
   <v>      -0.02057141      -0.13038842      -0.06482915 </v>
   <v>       0.41588708      -0.30341128      -1.39517577 </v>
   <v>       0.09923890      -0.85955277       0.43378606 </v>
   <v>      -1.37238145       0.00004472      -0.53661131 </v>
   <v>       0.48499099       0.67202471       1.43232661 </v>
   <v>      -0.01982460      -0.02715561      -0.03076093 </v>
   <v>      -0.12660159      -0.00319511      -0.11078325 </v>
   <v>       0.18011911       0.04098448      -0.22970224 </v>
   <v>      -0.20478134      -0.00151464      -0.35866383 </v>
   <v>      -0.85602283      -0.00812143      -0.17126117 </v>
   <v>       0.00122397      -0.09976060       0.20323492 </v>
   <v>      -0.69356227       0.94511582       0.34337291 </v>
   <v>      -0.01324304      -0.06486459       1.59099449 </v>
   <v>      -0.07766574       0.05730776      -0.03566331 </v>
   <v>      -0.06328141       0.00733217      -0.29918083 </v>
   <v>      -1.54774951      -0.00945066      -0.38147768 </v>
   <v>       0.01565906       0.10291860       0.02987612 </v>
   <v>       0.60141659       0.09501070      -0.96422014 </v>
   <v>      -0.24800557      -0.42823604      -0.65814858 </v>
   <v>      -0.09877469       0.31584204      -0.47077335 </v>
   <v>      -0.03217345       0.13152459      -0.32844863 </v>
   <v>       0.25823144       0.29333213       0.64011545 </v>
   <v>      -0.46318430       0.36625427       0.14857821 </v>
   <v>      -0.02564875       0.07120988      -0.01189087 </v>
   <v>       0.01848402       0.29399632      -0.17871104 </v>
   <v>      -0.02080373       0.09716197      -0.04953659 </v>
   <v>       0.41878599       0.32237563      -1.40303805 </v>
   <v>      -0.00049975       0.89736450       0.55738972 </v>
  </varray>
  <varray name="stress" >
   <v>     -31.33653947       1.63784307       9.77055711 </v>
   <v>       1.63784307     -19.53821094      -0.05277752 </v>
   <v>       9.77055712      -0.05277750     -17.16618410 </v>
  </varray>
  <energy>
   <i name="e_fr_energy">   -366.43885111 </i>
   <i name="e_wo_entrp">   -365.28334937 </i>
   <i name="e_0_energy">   -365.86110024 </i>
  </energy>
  <time name="totalsc">   95.02   95.34</time>
  <eigenvalues>
   <array>
    <dimension dim="1">band</dimension>
    <dimension dim="2">kpoint</dimension>
    <dimension dim="3">spin</dimension>
    <field>eigene</field>
    <field>occ</field>
    <set>
     <set comment="spin 1">
      <set comment="kpoint 1">
       <r>  -62.9011    1.0000 </r>
       <r>  -62.8585    1.0000 </r>
       <r>  -62.8529    1.0000 </r>
       <r>  -62.8463    1.0000 </r>
       <r>  -62.8462    1.0000 </r>
       <r>  -62.8436    1.0000 </r>
       <r>  -62.8409    1.0000 </r>
       <r>  -62.8393    1.0000 </r>
       <r>  -62.8350    1.0000 </r>
       <r>  -62.8341    1.0000 </r>
       <r>  -62.8320    1.0000 </r>
       <r>  -62.8282    1.0000 </r>
       <r>  -62.8271    1.0000 </r>
       <r>  -62.8239    1.0000 </r>
       <r>  -62.8234    1.0000 </r>
       <r>  -62.8215    1.0000 </r>
       <r>  -62.8077    1.0000 </r>
       <r>  -62.8054    1.0000 </r>
       <r>  -62.8021    1.0000 </r>
       <r>  -62.8014    1.0000 </r>
       <r>  -62.7998    1.0000 </r>
       <r>  -62.7949    1.0000 </r>
       <r>  -62.7949    1.0000 </r>
       <r>  -62.7929    1.0000 </r>
       <r>  -62.7908    1.0000 </r>
       <r>  -62.7894    1.0000 </r>
       <r>  -62.7844    1.0000 </r>
       <r>  -62.7799    1.0000 </r>
       <r>  -62.7757    1.0000 </r>
       <r>  -62.7735    1.0000 </r>
       <r>  -62.7711    1.0000 </r>
       <r>  -62.7699    1.0000 </r>
       <r>  -62.7665    1.0000 </r>
       <r>  -62.7650    1.0000 </r>
       <r>  -62.7624    1.0000 </r>
       <r>  -62.7613    1.0000 </r>
       <r>  -62.7612    1.0000 </r>
       <r>  -62.7528    1.0000 </r>
       <r>  -62.7528    1.0000 </r>
       <r>  -62.7446    1.0000 </r>
       <r>  -62.7429    1.0000 </r>
       <r>  -62.7405    1.0000 </r>
       <r>  -62.7316    1.0000 </r>
       <r>  -62.7109    1.0000 </r>
       <r>  -62.7055    1.0000 </r>
       <r>  -62.6938    1.0000 </r>
       <r>  -62.6866    1.0000 </r>
       <r>  -62.6818    1.0000 </r>
       <r>  -62.6818    1.0000 </r>
       <r>  -62.6502    1.0000 </r>
       <r>  -62.6459    1.0000 </r>
       <r>  -62.6368    1.0000 </r>
       <r>  -62.6279    1.0000 </r>
       <r>  -62.6201    1.0000 </r>
       <r>  -62.6154    1.0000 </r>
       <r>  -62.6122    1.0000 </r>
       <r>  -62.6083    1.0000 </r>
       <r>  -62.6071    1.0000 </r>
       <r>  -62.5999    1.0000 </r>
       <r>  -62.5976    1.0000 </r>
       <r>  -62.5799    1.0000 </r>
       <r>  -62.5705    1.0000 </r>
       <r>  -62.5630    1.0000 </r>
       <r>  -62.5618    1.0000 </r>
       <r>  -62.5614    1.0000 </r>
       <r>  -62.5609    1.0000 </r>
       <r>  -62.5527    1.0000 </r>
       <r>  -62.5493    1.0000 </r>
       <r>  -62.5410    1.0000 </r>
       <r>  -62.5349    1.0000 </r>
       <r>  -62.5191    1.0000 </r>
       <r>  -62.5114    1.0000 </r>
       <r>  -62.4970    1.0000 </r>
       <r>  -62.4904    1.0000 </r>
       <r>  -62.4829    1.0000 </r>
       <r>  -62.4584    1.0000 </r>
       <r>  -62.4365    1.0000 </r>
       <r>  -62.4334    1.0000 </r>
       <r>  -62.4122    1.0000 </r>
       <r>  -62.4087    1.0000 </r>
       <r>  -62.3947    1.0000 </r>
       <r>  -62.3768    1.0000 </r>
       <r>  -62.3687    1.0000 </r>
       <r>  -62.3653    1.0000 </r>
       <r>  -62.3612    1.0000 </r>
       <r>  -62.3430    1.0000 </r>
       <r>  -62.3211    1.0000 </r>
       <r>  -62.3011    1.0000 </r>
       <r>  -62.2864    1.0000 </r>
       <r>  -62.2318    1.0000 </r>
       <r>  -62.2208    1.0000 </r>
       <r>  -62.1753    1.0000 </r>
       <r>  -62.0760    1.0000 </r>
       <r>  -62.0585    1.0000 </r>
       <r>  -62.0577    1.0000 </r>
       <r>  -62.0366    1.0000 </r>
       <r>  -62.0286    1.0000 </r>
       <r>  -61.9102    1.0000 </r>
       <r>  -61.8061    1.0000 </r>
       <r>  -61.8001    1.0000 </r>
       <r>  -61.7982    1.0000 </r>
       <r>  -61.7419    1.0000 </r>
       <r>  -61.6768    1.0000 </r>
       <r>  -61.6446    1.0000 </r>
       <r>  -61.6381    1.0000 </r>
       <r>  -61.6224    1.0000 </r>
       <r>  -61.5120    1.0000 </r>
       <r>  -61.4973    1.0000 </r>
       <r>  -61.4430    1.0000 </r>
       <r>  -61.4253    1.0000 </r>
       <r>  -61.2825    1.0000 </r>
       <r>  -14.1675    1.0000 </r>
       <r>  -13.5140    1.0000 </r>
       <r>  -13.3952    1.0000 </r>
       <r>  -13.3848    1.0000 </r>
       <r>  -13.2266    1.0000 </r>
       <r>  -13.1717    1.0000 </r>
       <r>  -12.9646    1.0000 </r>
       <r>  -12.9370    1.0000 </r>
       <r>  -12.8828    1.0000 </r>
       <r>  -12.8057    1.0000 </r>
       <r>  -12.7357    1.0000 </r>
       <r>  -12.6928    1.0000 </r>
       <r>  -12.6195    1.0000 </r>
       <r>  -12.5004    1.0000 </r>
       <r>  -12.4590    1.0000 </r>
       <r>  -12.3903    1.0000 </r>
       <r>  -12.3454    1.0000 </r>
       <r>  -12.2961    1.0000 </r>
       <r>  -12.2536    1.0000 </r>
       <r>  -12.2234    1.0000 </r>
       <r>  -12.1744    1.0000 </r>
       <r>  -12.0774    1.0000 </r>
       <r>  -12.0583    1.0000 </r>
       <r>  -11.9946    1.0000 </r>
       <r>  -11.9786    1.0000 </r>
       <r>  -11.9555    1.0000 </r>
       <r>  -11.8386    1.0000 </r>
       <r>  -11.7002    1.0000 </r>
       <r>  -11.6458    1.0000 </r>
       <r>  -11.3983    1.0000 </r>
       <r>  -11.2357    1.0000 </r>
       <r>  -11.2303    1.0000 </r>
       <r>  -11.0276    1.0000 </r>
       <r>  -10.9688    1.0000 </r>
       <r>  -10.9250    1.0000 </r>
       <r>  -10.8988    1.0000 </r>
       <r>  -10.4711    1.0000 </r>
       <r>   -6.0755    1.0000 </r>
       <r>   -6.0341    1.0000 </r>
       <r>   -5.6146    1.0000 </r>
       <r>   -5.5876    1.0000 </r>
       <r>   -5.5471    1.0000 </r>
       <r>   -5.3787    1.0000 </r>
       <r>   -5.3419    1.0000 </r>
       <r>   -5.2952    1.0000 </r>
       <r>   -5.2742    1.0000 </r>
       <r>   -5.2130    1.0000 </r>
       <r>   -5.1352    1.0000 </r>
       <r>   -5.1011    1.0000 </r>
       <r>   -5.0004    1.0000 </r>
       <r>   -4.9834    1.0000 </r>
       <r>   -4.9708    1.0000 </r>
       <r>   -4.9506    1.0000 </r>
       <r>   -4.9396    1.0000 </r>
       <r>   -4.8753    1.0000 </r>
       <r>   -4.8612    1.0000 </r>
       <r>   -4.8035    1.0000 </r>
       <r>   -4.7735    1.0000 </r>
       <r>   -4.7396    1.0000 </r>
       <r>   -4.7204    1.0000 </r>
       <r>   -4.6302    1.0000 </r>
       <r>   -4.5663    1.0000 </r>
       <r>   -4.5421    1.0000 </r>
       <r>   -4.4714    1.0000 </r>
       <r>   -4.4199    1.0000 </r>
       <r>   -4.3270    1.0000 </r>
       <r>   -4.3205    1.0000 </r>
       <r>   -4.2570    1.0000 </r>
       <r>   -4.2380    1.0000 </r>
       <r>   -4.1930    1.0000 </r>
       <r>   -4.0953    1.0000 </r>
       <r>   -4.0509    1.0000 </r>
       <r>   -4.0040    1.0000 </r>
       <r>   -3.9528    1.0000 </r>
       <r>   -3.9353    1.0000 </r>
       <r>   -3.9107    1.0000 </r>
       <r>   -3.8221    1.0000 </r>
       <r>   -3.7841    1.0000 </r>
       <r>   -3.7422    1.0000 </r>
       <r>   -3.6843    1.0000 </r>
       <r>   -3.6241    1.0000 </r>
       <r>   -3.5881    1.0000 </r>
       <r>   -3.5571    1.0000 </r>
       <r>   -3.4670    1.0000 </r>
       <r>   -3.4334    1.0000 </r>
       <r>   -3.4188    1.0000 </r>
       <r>   -3.4142    1.0000 </r>
       <r>   -3.3974    1.0000 </r>
       <r>   -3.3801    1.0000 </r>
       <r>   -3.3430    1.0000 </r>
       <r>   -3.2899    1.0000 </r>
       <r>   -3.2523    1.0000 </r>
       <r>   -3.2133    1.0000 </r>
       <r>   -3.1936    1.0000 </r>
       <r>   -3.1475    1.0000 </r>
       <r>   -3.0980    1.0000 </r>
       <r>   -3.0749    1.0000 </r>
       <r>   -3.0564    1.0000 </r>
       <r>   -3.0338    1.0000 </r>
       <r>   -2.9741    1.0000 </r>
       <r>   -2.9680    1.0000 </r>
       <r>   -2.9328    1.0000 </r>
       <r>   -2.9139    1.0000 </r>
       <r>   -2.8945    1.0000 </r>
       <r>   -2.8851    1.0000 </r>
       <r>   -2.8473    1.0000 </r>
       <r>   -2.8228    1.0000 </r>
       <r>   -2.7553    1.0000 </r>
       <r>   -2.7490    1.0000 </r>
       <r>   -2.7266    1.0000 </r>
       <r>   -2.7143    1.0000 </r>
       <r>   -2.6884    1.0000 </r>
       <r>   -2.6659    1.0000 </r>
       <r>   -2.6419    1.0000 </r>
       <r>   -2.6072    1.0000 </r>
       <r>   -2.5899    1.0000 </r>
       <r>   -2.5507    1.0000 </r>
       <r>   -2.5163    1.0000 </r>
       <r>   -2.5069    1.0000 </r>
       <r>   -2.4967    1.0000 </r>
       <r>   -2.4602    1.0000 </r>
       <r>   -2.4356    1.0000 </r>
       <r>   -2.4075    1.0000 </r>
       <r>   -2.3763    1.0000 </r>
       <r>   -2.3653    1.0000 </r>
       <r>   -2.3248    1.0000 </r>
       <r>   -2.3146    1.0000 </r>
       <r>   -2.2666    1.0000 </r>
       <r>   -2.2186    1.0000 </r>
       <r>   -2.2046    1.0000 </r>
       <r>   -2.1763    1.0000 </r>
       <r>   -2.1386    1.0000 </r>
       <r>   -2.1117    1.0000 </r>
       <r>   -2.0021    1.0000 </r>
       <r>   -1.9655    1.0000 </r>
       <r>   -1.8850    1.0000 </r>
       <r>   -1.8125    1.0000 </r>
       <r>   -1.7924    1.0000 </r>
       <r>   -1.7742    1.0000 </r>
       <r>   -1.7163    1.0000 </r>
       <r>   -1.6818    1.0000 </r>
       <r>   -1.6610    1.0000 </r>
       <r>   -1.6235    1.0000 </r>
       <r>   -1.6087    1.0000 </r>
       <r>   -1.5664    1.0000 </r>
       <r>   -1.4863    1.0000 </r>
       <r>   -1.4483    1.0000 </r>
       <r>   -1.4340    1.0000 </r>
       <r>   -1.4017    1.0000 </r>
       <r>   -1.3747    1.0000 </r>
       <r>   -1.3613    1.0000 </r>
       <r>   -1.3269    1.0000 </r>
       <r>   -1.3181    1.0000 </r>
       <r>   -1.3005    1.0000 </r>
       <r>   -1.2217    1.0000 </r>
       <r>   -1.2028    1.0000 </r>
       <r>   -1.1633    1.0000 </r>
       <r>   -1.1364    1.0000 </r>
       <r>   -1.1079    1.0000 </r>
       <r>   -1.1067    1.0000 </r>
       <r>   -1.0738    1.0000 </r>
       <r>   -1.0577    1.0000 </r>
       <r>   -1.0548    1.0000 </r>
       <r>   -1.0046    1.0000 </r>
       <r>   -0.9873    1.0000 </r>
       <r>   -0.9853    1.0000 </r>
       <r>   -0.9642    1.0000 </r>
       <r>   -0.9500    1.0000 </r>
       <r>   -0.9290    1.0000 </r>
       <r>   -0.9108    1.0000 </r>
       <r>   -0.9066    1.0000 </r>
       <r>   -0.8779    1.0000 </r>
       <r>   -0.8641    1.0000 </r>
       <r>   -0.8511    1.0000 </r>
       <r>   -0.8434    1.0000 </r>
       <r>   -0.8078    1.0000 </r>
       <r>   -0.7914    1.0000 </r>
       <r>   -0.7778    1.0000 </r>
       <r>   -0.7654    1.0000 </r>
       <r>   -0.7427    1.0000 </r>
       <r>   -0.7218    1.0000 </r>
       <r>   -0.7018    1.0000 </r>
       <r>   -0.6869    1.0000 </r>
       <r>   -0.6693    1.0000 </r>
       <r>   -0.6419    1.0000 </r>
       <r>   -0.6359    1.0000 </r>
       <r>   -0.6261    1.0000 </r>
       <r>   -0.6001    1.0000 </r>
       <r>   -0.5825    1.0000 </r>
       <r>   -0.5636    1.0000 </r>
       <r>   -0.5575    1.0000 </r>
       <r>   -0.5439    1.0000 </r>
       <r>   -0.5382    1.0000 </r>
       <r>   -0.5259    1.0000 </r>
       <r>   -0.5081    1.0000 </r>
       <r>   -0.4967    1.0000 </r>
       <r>   -0.4879    1.0000 </r>
       <r>   -0.4733    1.0000 </r>
       <r>   -0.4709    1.0000 </r>
       <r>   -0.4641    1.0000 </r>
       <r>   -0.4580    1.0000 </r>
       <r>   -0.4467    1.0000 </r>
       <r>   -0.4234    1.0000 </r>
       <r>   -0.4110    1.0000 </r>
       <r>   -0.3980    1.0000 </r>
       <r>   -0.3870    1.0000 </r>
       <r>   -0.3814    1.0000 </r>
       <r>   -0.3732    1.0000 </r>
       <r>   -0.3650    1.0000 </r>
       <r>   -0.3591    1.0000 </r>
       <r>   -0.3391    1.0000 </r>
       <r>   -0.3279    1.0000 </r>
       <r>   -0.3126    1.0000 </r>
       <r>   -0.3096    1.0000 </r>
       <r>   -0.2968    1.0000 </r>
       <r>   -0.2932    1.0000 </r>
       <r>   -0.2866    1.0000 </r>
       <r>   -0.2704    1.0000 </r>
       <r>   -0.2651    1.0000 </r>
       <r>   -0.2551    1.0000 </r>
       <r>   -0.2399    1.0000 </r>
       <r>   -0.2273    1.0000 </r>
       <r>   -0.2212    1.0000 </r>
       <r>   -0.2050    1.0000 </r>
       <r>   -0.1998    1.0000 </r>
       <r>   -0.1866    1.0000 </r>
       <r>   -0.1792    1.0000 </r>
       <r>   -0.1532    1.0000 </r>
       <r>   -0.1526    1.0000 </r>
       <r>   -0.1438    1.0000 </r>
       <r>   -0.1310    1.0000 </r>
       <r>   -0.1184    1.0000 </r>
       <r>   -0.1013    1.0000 </r>
       <r>   -0.0912    1.0000 </r>
       <r>   -0.0719    1.0000 </r>
       <r>   -0.0564    1.0000 </r>
       <r>   -0.0324    1.0000 </r>
       <r>   -0.0205    1.0000 </r>
       <r>   -0.0109    1.0000 </r>
       <r>    0.0075    1.0000 </r>
       <r>    0.0093    1.0000 </r>
       <r>    0.0225    1.0000 </r>
       <r>    0.0349    1.0000 </r>
       <r>    0.0468    1.0000 </r>
       <r>    0.0681    1.0000 </r>
       <r>    0.0898    1.0000 </r>
       <r>    0.0948    1.0000 </r>
       <r>    0.1384    1.0000 </r>
       <r>    0.1451    1.0000 </r>
       <r>    0.1742    1.0000 </r>
       <r>    0.2009    1.0000 </r>
       <r>    0.2137    1.0000 </r>
       <r>    0.2246    1.0000 </r>
       <r>    0.2350    1.0000 </r>
       <r>    0.2416    1.0000 </r>
       <r>    0.2666    1.0000 </r>
       <r>    0.2710    1.0000 </r>
       <r>    0.3051    1.0000 </r>
       <r>    0.3134    1.0000 </r>
       <r>    0.3403    1.0000 </r>
       <r>    0.3779    1.0000 </r>
       <r>    0.3841    1.0000 </r>
       <r>    0.4004    1.0000 </r>
       <r>    0.4135    1.0000 </r>
       <r>    0.4289    1.0000 </r>
       <r>    0.4494    1.0000 </r>
       <r>    0.4747    1.0000 </r>
       <r>    0.5082    1.0000 </r>
       <r>    0.5224    1.0000 </r>
       <r>    0.5321    1.0000 </r>
       <r>    0.5616    1.0000 </r>
       <r>    0.5661    1.0000 </r>
       <r>    0.5816    1.0000 </r>
       <r>    0.6108    1.0000 </r>
       <r>    0.6323    1.0000 </r>
       <r>    0.6393    1.0000 </r>
       <r>    0.6740    1.0000 </r>
       <r>    0.7036    1.0000 </r>
       <r>    0.7097    1.0000 </r>
       <r>    0.7186    1.0000 </r>
       <r>    0.7373    0.9999 </r>
       <r>    0.7831    0.9998 </r>
       <r>    0.8068    0.9996 </r>
       <r>    0.8184    0.9995 </r>
       <r>    0.8512    0.9989 </r>
       <r>    0.8642    0.9986 </r>
       <r>    0.9394    0.9928 </r>
       <r>    1.0041    0.9766 </r>
       <r>    1.0352    0.9615 </r>
       <r>    1.0559    0.9477 </r>
       <r>    1.0714    0.9348 </r>
       <r>    1.1407    0.8468 </r>
       <r>    1.1598    0.8127 </r>
       <r>    1.2010    0.7245 </r>
       <r>    1.2399    0.6259 </r>
       <r>    1.2867    0.4961 </r>
       <r>    1.3104    0.4297 </r>
       <r>    1.3292    0.3782 </r>
       <r>    1.3592    0.3008 </r>
       <r>    1.3948    0.2195 </r>
       <r>    1.4113    0.1866 </r>
       <r>    1.5052    0.0600 </r>
       <r>    1.5265    0.0440 </r>
       <r>    1.5514    0.0300 </r>
       <r>    1.5922    0.0150 </r>
       <r>    1.6284    0.0076 </r>
       <r>    1.6318    0.0071 </r>
       <r>    1.6730    0.0031 </r>
       <r>    1.7128    0.0013 </r>
       <r>    1.7436    0.0006 </r>
       <r>    1.7621    0.0004 </r>
       <r>    1.7699    0.0003 </r>
       <r>    1.8249    0.0001 </r>
       <r>    1.8871    0.0000 </r>
       <r>    1.9030    0.0000 </r>
       <r>    1.9165    0.0000 </r>
       <r>    1.9310    0.0000 </r>
       <r>    1.9421    0.0000 </r>
       <r>    1.9639    0.0000 </r>
       <r>    1.9850    0.0000 </r>
       <r>    2.0401    0.0000 </r>
       <r>    2.0673    0.0000 </r>
       <r>    2.1412    0.0000 </r>
       <r>    2.1860    0.0000 </r>
       <r>    2.2363    0.0000 </r>
       <r>    2.2639    0.0000 </r>
       <r>    2.2932    0.0000 </r>
       <r>    2.3450    0.0000 </r>
       <r>    2.4069    0.0000 </r>
       <r>    2.4381    0.0000 </r>
       <r>    2.4818    0.0000 </r>
       <r>    2.5111    0.0000 </r>
       <r>    2.5430    0.0000 </r>
       <r>    2.7774    0.0000 </r>
       <r>    3.1030    0.0000 </r>
       <r>    3.6108    0.0000 </r>
       <r>    3.8131    0.0000 </r>
       <r>    4.2603    0.0000 </r>
       <r>    4.3543    0.0000 </r>
       <r>    4.4253    0.0000 </r>
       <r>    4.6172    0.0000 </r>
       <r>    4.7736    0.0000 </r>
       <r>    4.9020    0.0000 </r>
       <r>    5.1111    0.0000 </r>
       <r>    5.1848    0.0000 </r>
       <r>    5.5483    0.0000 </r>
       <r>    5.5650    0.0000 </r>
       <r>    5.5976    0.0000 </r>
       <r>    5.6287    0.0000 </r>
       <r>    5.6658    0.0000 </r>
       <r>    5.6881    0.0000 </r>
       <r>    5.7572    0.0000 </r>
       <r>    5.8022    0.0000 </r>
       <r>    5.8304    0.0000 </r>
       <r>    5.9678    0.0000 </r>
       <r>    5.9879    0.0000 </r>
       <r>    6.1544    0.0000 </r>
       <r>    6.1644    0.0000 </r>
       <r>    6.2905    0.0000 </r>
       <r>    6.4218    0.0000 </r>
       <r>    6.4366    0.0000 </r>
       <r>    6.4924    0.0000 </r>
       <r>    6.5187    0.0000 </r>
       <r>    6.5896    0.0000 </r>
       <r>    6.6138    0.0000 </r>
       <r>    6.6613    0.0000 </r>
       <r>    6.7336    0.0000 </r>
       <r>    6.8846    0.0000 </r>
       <r>    6.9218    0.0000 </r>
       <r>    6.9435    0.0000 </r>
       <r>    6.9951    0.0000 </r>
       <r>    7.0295    0.0000 </r>
       <r>    7.0825    0.0000 </r>
       <r>    7.1033    0.0000 </r>
       <r>    7.1863    0.0000 </r>
       <r>    7.2362    0.0000 </r>
       <r>    7.2792    0.0000 </r>
      </set>
     </set>
    </set>
   </array>
  </eigenvalues>
  <separator name="orbital magnetization" >
   <v name="MAGDIPOLOUT">      0.00000000      0.00000000      0.00000000</v>
  </separator>
  <dos>
   <i name="efermi">      1.28534821 </i>
   <total>
    <array>
     <dimension dim="1">gridpoints</dimension>
     <dimension dim="2">spin</dimension>
     <field>energy</field>
     <field>total</field>
     <field>integrated</field>
     <set>
      <set comment="spin 1">
       <r>   -66.4101     0.0000     0.0000 </r>
       <r>   -66.1528     0.0000     0.0000 </r>
       <r>   -65.8954     0.0000     0.0000 </r>
       <r>   -65.6381     0.0000     0.0000 </r>
       <r>   -65.3808     0.0000     0.0000 </r>
       <r>   -65.1235     0.0000     0.0000 </r>
       <r>   -64.8661     0.0000     0.0000 </r>
       <r>   -64.6088     0.0000     0.0000 </r>
       <r>   -64.3515     0.0000     0.0000 </r>
       <r>   -64.0941     0.0000     0.0000 </r>
       <r>   -63.8368     0.0000     0.0000 </r>
       <r>   -63.5795     0.0000     0.0000 </r>
       <r>   -63.3222     0.0613     0.0158 </r>
       <r>   -63.0648    11.9448     3.0895 </r>
       <r>   -62.8075   169.2253    46.6359 </r>
       <r>   -62.5502   304.4993   124.9919 </r>
       <r>   -62.2929   176.5285   170.4176 </r>
       <r>   -62.0355    72.8681   189.1685 </r>
       <r>   -61.7782    46.3783   201.1029 </r>
       <r>   -61.5209    46.9784   213.1918 </r>
       <r>   -61.2635    28.1716   220.4411 </r>
       <r>   -61.0062     5.8376   221.9433 </r>
       <r>   -60.7489     0.2198   221.9998 </r>
       <r>   -60.4916     0.0006   222.0000 </r>
       <r>   -60.2342     0.0000   222.0000 </r>
       <r>   -59.9769     0.0000   222.0000 </r>
       <r>   -59.7196     0.0000   222.0000 </r>
       <r>   -59.4623     0.0000   222.0000 </r>
       <r>   -59.2049     0.0000   222.0000 </r>
       <r>   -58.9476     0.0000   222.0000 </r>
       <r>   -58.6903     0.0000   222.0000 </r>
       <r>   -58.4329     0.0000   222.0000 </r>
       <r>   -58.1756     0.0000   222.0000 </r>
       <r>   -57.9183     0.0000   222.0000 </r>
       <r>   -57.6610     0.0000   222.0000 </r>
       <r>   -57.4036     0.0000   222.0000 </r>
       <r>   -57.1463     0.0000   222.0000 </r>
       <r>   -56.8890     0.0000   222.0000 </r>
       <r>   -56.6316     0.0000   222.0000 </r>
       <r>   -56.3743     0.0000   222.0000 </r>
       <r>   -56.1170     0.0000   222.0000 </r>
       <r>   -55.8597     0.0000   222.0000 </r>
       <r>   -55.6023     0.0000   222.0000 </r>
       <r>   -55.3450     0.0000   222.0000 </r>
       <r>   -55.0877     0.0000   222.0000 </r>
       <r>   -54.8304     0.0000   222.0000 </r>
       <r>   -54.5730     0.0000   222.0000 </r>
       <r>   -54.3157     0.0000   222.0000 </r>
       <r>   -54.0584     0.0000   222.0000 </r>
       <r>   -53.8010     0.0000   222.0000 </r>
       <r>   -53.5437     0.0000   222.0000 </r>
       <r>   -53.2864     0.0000   222.0000 </r>
       <r>   -53.0291     0.0000   222.0000 </r>
       <r>   -52.7717     0.0000   222.0000 </r>
       <r>   -52.5144     0.0000   222.0000 </r>
       <r>   -52.2571     0.0000   222.0000 </r>
       <r>   -51.9998     0.0000   222.0000 </r>
       <r>   -51.7424     0.0000   222.0000 </r>
       <r>   -51.4851     0.0000   222.0000 </r>
       <r>   -51.2278     0.0000   222.0000 </r>
       <r>   -50.9704     0.0000   222.0000 </r>
       <r>   -50.7131     0.0000   222.0000 </r>
       <r>   -50.4558     0.0000   222.0000 </r>
       <r>   -50.1985     0.0000   222.0000 </r>
       <r>   -49.9411     0.0000   222.0000 </r>
       <r>   -49.6838     0.0000   222.0000 </r>
       <r>   -49.4265     0.0000   222.0000 </r>
       <r>   -49.1691     0.0000   222.0000 </r>
       <r>   -48.9118     0.0000   222.0000 </r>
       <r>   -48.6545     0.0000   222.0000 </r>
       <r>   -48.3972     0.0000   222.0000 </r>
       <r>   -48.1398     0.0000   222.0000 </r>
       <r>   -47.8825     0.0000   222.0000 </r>
       <r>   -47.6252     0.0000   222.0000 </r>
       <r>   -47.3679     0.0000   222.0000 </r>
       <r>   -47.1105     0.0000   222.0000 </r>
       <r>   -46.8532     0.0000   222.0000 </r>
       <r>   -46.5959     0.0000   222.0000 </r>
       <r>   -46.3385     0.0000   222.0000 </r>
       <r>   -46.0812     0.0000   222.0000 </r>
       <r>   -45.8239     0.0000   222.0000 </r>
       <r>   -45.5666     0.0000   222.0000 </r>
       <r>   -45.3092     0.0000   222.0000 </r>
       <r>   -45.0519     0.0000   222.0000 </r>
       <r>   -44.7946     0.0000   222.0000 </r>
       <r>   -44.5373     0.0000   222.0000 </r>
       <r>   -44.2799     0.0000   222.0000 </r>
       <r>   -44.0226     0.0000   222.0000 </r>
       <r>   -43.7653     0.0000   222.0000 </r>
       <r>   -43.5079     0.0000   222.0000 </r>
       <r>   -43.2506     0.0000   222.0000 </r>
       <r>   -42.9933     0.0000   222.0000 </r>
       <r>   -42.7360     0.0000   222.0000 </r>
       <r>   -42.4786     0.0000   222.0000 </r>
       <r>   -42.2213     0.0000   222.0000 </r>
       <r>   -41.9640     0.0000   222.0000 </r>
       <r>   -41.7066     0.0000   222.0000 </r>
       <r>   -41.4493     0.0000   222.0000 </r>
       <r>   -41.1920     0.0000   222.0000 </r>
       <r>   -40.9347     0.0000   222.0000 </r>
       <r>   -40.6773     0.0000   222.0000 </r>
       <r>   -40.4200     0.0000   222.0000 </r>
       <r>   -40.1627     0.0000   222.0000 </r>
       <r>   -39.9054     0.0000   222.0000 </r>
       <r>   -39.6480     0.0000   222.0000 </r>
       <r>   -39.3907     0.0000   222.0000 </r>
       <r>   -39.1334     0.0000   222.0000 </r>
       <r>   -38.8760     0.0000   222.0000 </r>
       <r>   -38.6187     0.0000   222.0000 </r>
       <r>   -38.3614     0.0000   222.0000 </r>
       <r>   -38.1041     0.0000   222.0000 </r>
       <r>   -37.8467     0.0000   222.0000 </r>
       <r>   -37.5894     0.0000   222.0000 </r>
       <r>   -37.3321     0.0000   222.0000 </r>
       <r>   -37.0748     0.0000   222.0000 </r>
       <r>   -36.8174     0.0000   222.0000 </r>
       <r>   -36.5601     0.0000   222.0000 </r>
       <r>   -36.3028     0.0000   222.0000 </r>
       <r>   -36.0454     0.0000   222.0000 </r>
       <r>   -35.7881     0.0000   222.0000 </r>
       <r>   -35.5308     0.0000   222.0000 </r>
       <r>   -35.2735     0.0000   222.0000 </r>
       <r>   -35.0161     0.0000   222.0000 </r>
       <r>   -34.7588     0.0000   222.0000 </r>
       <r>   -34.5015     0.0000   222.0000 </r>
       <r>   -34.2441     0.0000   222.0000 </r>
       <r>   -33.9868     0.0000   222.0000 </r>
       <r>   -33.7295     0.0000   222.0000 </r>
       <r>   -33.4722     0.0000   222.0000 </r>
       <r>   -33.2148     0.0000   222.0000 </r>
       <r>   -32.9575     0.0000   222.0000 </r>
       <r>   -32.7002     0.0000   222.0000 </r>
       <r>   -32.4429     0.0000   222.0000 </r>
       <r>   -32.1855     0.0000   222.0000 </r>
       <r>   -31.9282     0.0000   222.0000 </r>
       <r>   -31.6709     0.0000   222.0000 </r>
       <r>   -31.4135     0.0000   222.0000 </r>
       <r>   -31.1562     0.0000   222.0000 </r>
       <r>   -30.8989     0.0000   222.0000 </r>
       <r>   -30.6416     0.0000   222.0000 </r>
       <r>   -30.3842     0.0000   222.0000 </r>
       <r>   -30.1269     0.0000   222.0000 </r>
       <r>   -29.8696     0.0000   222.0000 </r>
       <r>   -29.6123     0.0000   222.0000 </r>
       <r>   -29.3549     0.0000   222.0000 </r>
       <r>   -29.0976     0.0000   222.0000 </r>
       <r>   -28.8403     0.0000   222.0000 </r>
       <r>   -28.5829     0.0000   222.0000 </r>
       <r>   -28.3256     0.0000   222.0000 </r>
       <r>   -28.0683     0.0000   222.0000 </r>
       <r>   -27.8110     0.0000   222.0000 </r>
       <r>   -27.5536     0.0000   222.0000 </r>
       <r>   -27.2963     0.0000   222.0000 </r>
       <r>   -27.0390     0.0000   222.0000 </r>
       <r>   -26.7816     0.0000   222.0000 </r>
       <r>   -26.5243     0.0000   222.0000 </r>
       <r>   -26.2670     0.0000   222.0000 </r>
       <r>   -26.0097     0.0000   222.0000 </r>
       <r>   -25.7523     0.0000   222.0000 </r>
       <r>   -25.4950     0.0000   222.0000 </r>
       <r>   -25.2377     0.0000   222.0000 </r>
       <r>   -24.9804     0.0000   222.0000 </r>
       <r>   -24.7230     0.0000   222.0000 </r>
       <r>   -24.4657     0.0000   222.0000 </r>
       <r>   -24.2084     0.0000   222.0000 </r>
       <r>   -23.9510     0.0000   222.0000 </r>
       <r>   -23.6937     0.0000   222.0000 </r>
       <r>   -23.4364     0.0000   222.0000 </r>
       <r>   -23.1791     0.0000   222.0000 </r>
       <r>   -22.9217     0.0000   222.0000 </r>
       <r>   -22.6644     0.0000   222.0000 </r>
       <r>   -22.4071     0.0000   222.0000 </r>
       <r>   -22.1498     0.0000   222.0000 </r>
       <r>   -21.8924     0.0000   222.0000 </r>
       <r>   -21.6351     0.0000   222.0000 </r>
       <r>   -21.3778     0.0000   222.0000 </r>
       <r>   -21.1204     0.0000   222.0000 </r>
       <r>   -20.8631     0.0000   222.0000 </r>
       <r>   -20.6058     0.0000   222.0000 </r>
       <r>   -20.3485     0.0000   222.0000 </r>
       <r>   -20.0911     0.0000   222.0000 </r>
       <r>   -19.8338     0.0000   222.0000 </r>
       <r>   -19.5765     0.0000   222.0000 </r>
       <r>   -19.3192     0.0000   222.0000 </r>
       <r>   -19.0618     0.0000   222.0000 </r>
       <r>   -18.8045     0.0000   222.0000 </r>
       <r>   -18.5472     0.0000   222.0000 </r>
       <r>   -18.2898     0.0000   222.0000 </r>
       <r>   -18.0325     0.0000   222.0000 </r>
       <r>   -17.7752     0.0000   222.0000 </r>
       <r>   -17.5179     0.0000   222.0000 </r>
       <r>   -17.2605     0.0000   222.0000 </r>
       <r>   -17.0032     0.0000   222.0000 </r>
       <r>   -16.7459     0.0000   222.0000 </r>
       <r>   -16.4885     0.0000   222.0000 </r>
       <r>   -16.2312     0.0000   222.0000 </r>
       <r>   -15.9739     0.0000   222.0000 </r>
       <r>   -15.7166     0.0000   222.0000 </r>
       <r>   -15.4592     0.0000   222.0000 </r>
       <r>   -15.2019     0.0000   222.0000 </r>
       <r>   -14.9446     0.0000   222.0000 </r>
       <r>   -14.6873     0.0009   222.0002 </r>
       <r>   -14.4299     0.2460   222.0635 </r>
       <r>   -14.1726     3.5281   222.9714 </r>
       <r>   -13.9153     3.7271   223.9305 </r>
       <r>   -13.6579     1.9327   224.4278 </r>
       <r>   -13.4006    13.0466   227.7851 </r>
       <r>   -13.1433    19.7647   232.8711 </r>
       <r>   -12.8860    22.7505   238.7254 </r>
       <r>   -12.6286    29.3747   246.2843 </r>
       <r>   -12.3713    31.8910   254.4908 </r>
       <r>   -12.1140    39.8353   264.7415 </r>
       <r>   -11.8567    35.1534   273.7875 </r>
       <r>   -11.5993    19.6325   278.8394 </r>
       <r>   -11.3420    13.0107   282.1874 </r>
       <r>   -11.0847    18.4346   286.9312 </r>
       <r>   -10.8273    21.3534   292.4260 </r>
       <r>   -10.5700     7.8506   294.4462 </r>
       <r>   -10.3127     5.0176   295.7374 </r>
       <r>   -10.0554     1.0079   295.9967 </r>
       <r>    -9.7980     0.0128   296.0000 </r>
       <r>    -9.5407     0.0000   296.0000 </r>
       <r>    -9.2834     0.0000   296.0000 </r>
       <r>    -9.0260     0.0000   296.0000 </r>
       <r>    -8.7687     0.0000   296.0000 </r>
       <r>    -8.5114     0.0000   296.0000 </r>
       <r>    -8.2541     0.0000   296.0000 </r>
       <r>    -7.9967     0.0000   296.0000 </r>
       <r>    -7.7394     0.0000   296.0000 </r>
       <r>    -7.4821     0.0000   296.0000 </r>
       <r>    -7.2248     0.0000   296.0000 </r>
       <r>    -6.9674     0.0000   296.0000 </r>
       <r>    -6.7101     0.0000   296.0000 </r>
       <r>    -6.4528     0.0416   296.0107 </r>
       <r>    -6.1954     2.4869   296.6507 </r>
       <r>    -5.9381     9.9570   299.2129 </r>
       <r>    -5.6808     9.0325   301.5372 </r>
       <r>    -5.4235    22.6887   307.3756 </r>
       <r>    -5.1661    35.4582   316.5000 </r>
       <r>    -4.9088    49.0792   329.1294 </r>
       <r>    -4.6515    50.0378   342.0055 </r>
       <r>    -4.3942    38.6450   351.9500 </r>
       <r>    -4.1368    39.6730   362.1589 </r>
       <r>    -3.8795    41.8310   372.9232 </r>
       <r>    -3.6222    42.7797   383.9316 </r>
       <r>    -3.3648    54.8533   398.0468 </r>
       <r>    -3.1075    61.9237   413.9815 </r>
       <r>    -2.8502    70.8013   432.2007 </r>
       <r>    -2.5929    77.9098   452.2490 </r>
       <r>    -2.3355    75.5248   471.6836 </r>
       <r>    -2.0782    56.4068   486.1986 </r>
       <r>    -1.8209    40.9582   496.7383 </r>
       <r>    -1.5635    52.6807   510.2945 </r>
       <r>    -1.3062    63.1976   526.5570 </r>
       <r>    -1.0489    80.9222   547.3805 </r>
       <r>    -0.7916   109.2686   575.4983 </r>
       <r>    -0.5342   133.8970   609.9537 </r>
       <r>    -0.2769   175.0587   655.0011 </r>
       <r>    -0.0196   162.6995   696.8682 </r>
       <r>     0.2377   124.6870   728.9536 </r>
       <r>     0.4951   108.2529   756.8100 </r>
       <r>     0.7524    95.8109   781.4648 </r>
       <r>     1.0097    66.2990   798.5254 </r>
       <r>     1.2671    56.0317   812.9439 </r>
       <r>     1.5244    57.8181   827.8221 </r>
       <r>     1.7817    64.0347   844.3000 </r>
       <r>     2.0390    66.6208   861.4433 </r>
       <r>     2.2964    50.5101   874.4410 </r>
       <r>     2.5537    40.2612   884.8013 </r>
       <r>     2.8110    16.7084   889.1008 </r>
       <r>     3.0683     6.4737   890.7667 </r>
       <r>     3.3257     4.5166   891.9289 </r>
       <r>     3.5830     3.9568   892.9471 </r>
       <r>     3.8403     8.1766   895.0512 </r>
       <r>     4.0977     4.8365   896.2957 </r>
       <r>     4.3550    11.2347   899.1867 </r>
       <r>     4.6123    14.8200   903.0003 </r>
       <r>     4.8696    13.0534   906.3593 </r>
       <r>     5.1270    12.8041   909.6542 </r>
       <r>     5.3843    11.2221   912.5419 </r>
       <r>     5.6416    27.8664   919.7127 </r>
       <r>     5.8990    38.0334   929.4998 </r>
       <r>     6.1563    25.2246   935.9908 </r>
       <r>     6.4136    26.4678   942.8016 </r>
       <r>     6.6709    36.0912   952.0889 </r>
       <r>     6.9283    33.1853   960.6284 </r>
       <r>     7.1856    38.6193   970.5662 </r>
       <r>     7.4429    19.1996   975.5068 </r>
       <r>     7.7002     1.9001   975.9957 </r>
       <r>     7.9576     0.0165   976.0000 </r>
       <r>     8.2149     0.0000   976.0000 </r>
       <r>     8.4722     0.0000   976.0000 </r>
       <r>     8.7296     0.0000   976.0000 </r>
       <r>     8.9869     0.0000   976.0000 </r>
       <r>     9.2442     0.0000   976.0000 </r>
       <r>     9.5015     0.0000   976.0000 </r>
       <r>     9.7589     0.0000   976.0000 </r>
       <r>    10.0162     0.0000   976.0000 </r>
       <r>    10.2735     0.0000   976.0000 </r>
       <r>    10.5308     0.0000   976.0000 </r>
       <r>    10.7882     0.0000   976.0000 </r>
      </set>
     </set>
    </array>
   </total>
  </dos>
 </calculation>
 <structure name="finalpos" >
  <crystal>
   <varray name="basis" >
    <v>      10.40335375      -4.78920500       0.00000000 </v>
    <v>       0.00000000       9.57841000       0.00000000 </v>
    <v>       0.00000000       0.00000000      20.64289137 </v>
   </varray>
   <i name="volume">   2057.01432661 </i>
   <varray name="rec_basis" >
    <v>       0.09612285       0.00000000       0.00000000 </v>
    <v>       0.04806142       0.10440146       0.00000000 </v>
    <v>       0.00000000       0.00000000       0.04844283 </v>
   </varray>
  </crystal>
  <varray name="positions" >
   <v>       0.58044680       0.07437514       0.35389447 </v>
   <v>       0.76256081       0.16543215       0.23263653 </v>
   <v>       0.94467483       0.25648915       0.11137858 </v>
   <v>       0.03518947       0.80174648       0.27305584 </v>
   <v>       0.21730349       0.89280348       0.15179789 </v>
   <v>       0.39941750       0.98386049       0.03053995 </v>
   <v>       0.85307546       0.71068947       0.39431379 </v>
   <v>       0.12570412       0.34700380       0.43473311 </v>
   <v>       0.30781813       0.43806081       0.31347516 </v>
   <v>       0.48993215       0.52911781       0.19221721 </v>
   <v>       0.67204616       0.62017482       0.07095926 </v>
   <v>       0.23035801       0.03143375       0.41107827 </v>
   <v>       0.41247203       0.12249075       0.28982032 </v>
   <v>       0.59458604       0.21354776       0.16856237 </v>
   <v>       0.77670006       0.30460477       0.04730442 </v>
   <v>       0.04932872       0.94091910       0.08772374 </v>
   <v>       0.50298667       0.66774808       0.45149758 </v>
   <v>       0.68510069       0.75880508       0.33023963 </v>
   <v>       0.86721470       0.84986209       0.20898169 </v>
   <v>       0.13984337       0.48617642       0.24940100 </v>
   <v>       0.32195738       0.57723343       0.12814306 </v>
   <v>       0.50407140       0.66829044       0.00688511 </v>
   <v>       0.77561534       0.30406241       0.49191690 </v>
   <v>       0.95772935       0.39511942       0.37065895 </v>
   <v>       0.39833278       0.24752413       0.47515242 </v>
   <v>       0.58044680       0.33858114       0.35389447 </v>
   <v>       0.76256081       0.42963815       0.23263653 </v>
   <v>       0.94467483       0.52069515       0.11137858 </v>
   <v>       0.03518947       0.06595248       0.27305584 </v>
   <v>       0.21730349       0.15700948       0.15179789 </v>
   <v>       0.39941750       0.24806649       0.03053995 </v>
   <v>       0.67096144       0.88383846       0.51557174 </v>
   <v>       0.85307546       0.97489547       0.39431379 </v>
   <v>       0.12570412       0.61120980       0.43473311 </v>
   <v>       0.30781813       0.70226681       0.31347516 </v>
   <v>       0.48993215       0.79332382       0.19221721 </v>
   <v>       0.67204616       0.88438082       0.07095926 </v>
   <v>       0.18441112       0.17667530       0.48428080 </v>
   <v>       0.36652513       0.26773231       0.36302285 </v>
   <v>       0.54863915       0.35878931       0.24176490 </v>
   <v>       0.73075316       0.44984632       0.12050696 </v>
   <v>       0.00338182       0.08616065       0.16092627 </v>
   <v>       0.18549584       0.17721766       0.03966833 </v>
   <v>       0.63915379       0.90404664       0.40344217 </v>
   <v>       0.82126781       0.99510365       0.28218422 </v>
   <v>       0.09389647       0.63141797       0.32260354 </v>
   <v>       0.27601049       0.72247498       0.20134559 </v>
   <v>       0.45812450       0.81353199       0.08008764 </v>
   <v>       0.91178246       0.54036097       0.44386148 </v>
   <v>       0.12675994       0.47963471       0.08083863 </v>
   <v>       0.58041790       0.20646369       0.44461248 </v>
   <v>       0.76253191       0.29752070       0.32335453 </v>
   <v>       0.94464593       0.38857770       0.20209658 </v>
   <v>       0.21727459       0.02489203       0.24251590 </v>
   <v>       0.39938860       0.11594904       0.12125795 </v>
   <v>       0.58150262       0.20700605       0.00000000 </v>
   <v>       0.03516057       0.93383503       0.36377384 </v>
   <v>       0.85304656       0.84277802       0.48503179 </v>
   <v>       0.30778923       0.57014936       0.40419316 </v>
   <v>       0.48990325       0.66120636       0.28293521 </v>
   <v>       0.67201726       0.75226337       0.16167726 </v>
   <v>       0.85413128       0.84332038       0.04041932 </v>
   <v>       0.54863915       0.02235931       0.24176490 </v>
   <v>       0.73075316       0.11341632       0.12050696 </v>
   <v>       0.18441112       0.84024530       0.48428080 </v>
   <v>       0.36652513       0.93130231       0.36302285 </v>
   <v>       0.00338182       0.74973065       0.16092627 </v>
   <v>       0.18549584       0.84078766       0.03966833 </v>
   <v>       0.63915379       0.56761664       0.40344217 </v>
   <v>       0.82126781       0.65867365       0.28218422 </v>
   <v>       0.09389647       0.29498797       0.32260354 </v>
   <v>       0.27601049       0.38604498       0.20134559 </v>
   <v>       0.45812450       0.47710199       0.08008764 </v>
   <v>       0.91178246       0.20393097       0.44386148 </v>
  </varray>
 </structure>
</modeling>
