"Millerite NiS"                         
           1
    10.403354   -4.789205    0.000000
     0.000000    9.578410    0.000000
     0.000000    0.000000   20.642891
   Ni   S 
    37    37
Direct configuration=     1
   0.58044680  0.07437514  0.35389447
   0.76256081  0.16543215  0.23263653
   0.94467483  0.25648915  0.11137858
   0.03518947  0.80174648  0.27305584
   0.21730349  0.89280348  0.15179789
   0.39941750  0.98386049  0.03053995
   0.85307546  0.71068947  0.39431379
   0.12570412  0.34700380  0.43473311
   0.30781813  0.43806081  0.31347516
   0.48993215  0.52911781  0.19221721
   0.67204616  0.62017482  0.07095926
   0.23035801  0.03143375  0.41107827
   0.41247203  0.12249075  0.28982032
   0.59458604  0.21354776  0.16856237
   0.77670006  0.30460477  0.04730442
   0.04932872  0.94091910  0.08772374
   0.50298667  0.66774808  0.45149758
   0.68510069  0.75880508  0.33023963
   0.86721470  0.84986209  0.20898169
   0.13984337  0.48617642  0.24940100
   0.32195738  0.57723343  0.12814306
   0.50407140  0.66829044  0.00688511
   0.77561534  0.30406241  0.49191690
   0.95772935  0.39511942  0.37065895
   0.39833278  0.24752413  0.47515242
   0.58044680  0.33858114  0.35389447
   0.76256081  0.42963815  0.23263653
   0.94467483  0.52069515  0.11137858
   0.03518947  0.06595248  0.27305584
   0.21730349  0.15700948  0.15179789
   0.39941750  0.24806649  0.03053995
   0.67096144  0.88383846  0.51557174
   0.85307546  0.97489547  0.39431379
   0.12570412  0.61120980  0.43473311
   0.30781813  0.70226681  0.31347516
   0.48993215  0.79332382  0.19221721
   0.67204616  0.88438082  0.07095926
   0.18441112  0.17667530  0.48428080
   0.36652513  0.26773231  0.36302285
   0.54863915  0.35878931  0.24176490
   0.73075316  0.44984632  0.12050696
   0.00338182  0.08616065  0.16092627
   0.18549584  0.17721766  0.03966833
   0.63915379  0.90404664  0.40344217
   0.82126781  0.99510365  0.28218422
   0.09389647  0.63141797  0.32260354
   0.27601049  0.72247498  0.20134559
   0.45812450  0.81353199  0.08008764
   0.91178246  0.54036097  0.44386148
   0.12675994  0.47963471  0.08083863
   0.58041790  0.20646369  0.44461248
   0.76253191  0.29752070  0.32335453
   0.94464593  0.38857770  0.20209658
   0.21727459  0.02489203  0.24251590
   0.39938860  0.11594904  0.12125795
   0.58150262  0.20700605  0.00000000
   0.03516057  0.93383503  0.36377384
   0.85304656  0.84277802  0.48503179
   0.30778923  0.57014936  0.40419316
   0.48990325  0.66120636  0.28293521
   0.67201726  0.75226337  0.16167726
   0.85413128  0.84332038  0.04041932
   0.54863915  0.02235931  0.24176490
   0.73075316  0.11341632  0.12050696
   0.18441112  0.84024530  0.48428080
   0.36652513  0.93130231  0.36302285
   0.00338182  0.74973065  0.16092627
   0.18549584  0.84078766  0.03966833
   0.63915379  0.56761664  0.40344217
   0.82126781  0.65867365  0.28218422
   0.09389647  0.29498797  0.32260354
   0.27601049  0.38604498  0.20134559
   0.45812450  0.47710199  0.08008764
   0.91178246  0.20393097  0.44386148
