 vasp.6.1.0 28Jan20 (build Mar 31 2020 17:42:31) gamma-only                     
  
 executed on             LinuxIFC date 2020.04.13  04:16:41
 running on   48 total cores
 distrk:  each k-point on   48 cores,    1 groups
 distr:  one band on NCORE=   6 cores,    8 groups


--------------------------------------------------------------------------------------------------------


 INCAR:
 POTCAR:    PAW_PBE Ni_pv 06Sep2000               
 POTCAR:    PAW_PBE S 06Sep2000                   
 POTCAR:    PAW_PBE Ni_pv 06Sep2000               
   VRHFIN =Ni:                                                                                      
   LEXCH  = PE                                                                                      
   EATOM  =  3501.1230 eV,  257.3253 Ry                                                             
                                                                                                    
   TITEL  = PAW_PBE Ni_pv 06Sep2000                                                                 
   LULTRA =        F    use ultrasoft PP ?                                                          
   IUNSCR =        1    unscreen: 0-lin 1-nonlin 2-no                                               
   RPACOR =    1.500    partial core radius                                                         
   POMASS =   58.690; ZVAL   =   16.000    mass and valenz                                          
   RCORE  =    2.000    outmost cutoff radius                                                       
   RWIGS  =    2.000; RWIGS  =    1.058    wigner-seitz radius (au A)                               
   ENMAX  =  367.986; ENMIN  =  275.989 eV                                                          
   RCLOC  =    1.301    cutoff for local pot                                                        
   LCOR   =        T    correct aug charges                                                         
   LPAW   =        T    paw PP                                                                      
   EAUG   =  703.443                                                                                
   DEXC   =    0.000                                                                                
   RMAX   =    2.041    core radius for proj-oper                                                   
   RAUG   =    1.300    factor for augmentation sphere                                              
   RDEP   =    2.103    radius for radial grids                                                     
   RDEPT  =    1.618    core radius for aug-charge                                                  
                                                                                                    
   Atomic configuration                                                                             
    8 entries                                                                                       
     n  l   j            E        occ.                                                              
     1  0  0.50     -8206.4253   2.0000                                                             
     2  0  0.50      -976.1748   2.0000                                                             
     2  1  1.50      -839.0571   6.0000                                                             
     3  0  0.50      -105.9991   2.0000                                                             
     3  1  1.50       -66.4603   6.0000                                                             
     3  2  2.50        -4.6458   9.0000                                                             
     4  0  0.50        -4.4926   1.0000                                                             
     4  3  2.50        -1.3606   0.0000                                                             
   Description                                                                                      
     l       E           TYP  RCUT    TYP  RCUT                                                     
     1    -66.4602962     23  1.700                                                                 
     1     -1.3605826     23  1.700                                                                 
     2     -4.6457867     23  2.000                                                                 
     2     -6.0063693     23  2.000                                                                 
     0     -4.4925576     23  1.900                                                                 
     0     16.3626226     23  1.900                                                                 
  local pseudopotential read in
  partial core-charges read in
  partial kinetic energy density read in
  atomic valenz-charges read in
  non local Contribution for L=           1  read in
    real space projection operators read in
  non local Contribution for L=           1  read in
    real space projection operators read in
  non local Contribution for L=           2  read in
    real space projection operators read in
  non local Contribution for L=           2  read in
    real space projection operators read in
  non local Contribution for L=           0  read in
    real space projection operators read in
  non local Contribution for L=           0  read in
    real space projection operators read in
    PAW grid and wavefunctions read in
 
   number of l-projection  operators is LMAX  =           6
   number of lm-projection operators is LMMAX =          18
 
 POTCAR:    PAW_PBE S 06Sep2000                   
   VRHFIN =S : s2p4                                                                                 
   LEXCH  = PE                                                                                      
   EATOM  =   276.8230 eV,   20.3459 Ry                                                             
                                                                                                    
   TITEL  = PAW_PBE S 06Sep2000                                                                     
   LULTRA =        F    use ultrasoft PP ?                                                          
   IUNSCR =        1    unscreen: 0-lin 1-nonlin 2-no                                               
   RPACOR =    1.500    partial core radius                                                         
   POMASS =   32.066; ZVAL   =    6.000    mass and valenz                                          
   RCORE  =    1.900    outmost cutoff radius                                                       
   RWIGS  =    2.200; RWIGS  =    1.164    wigner-seitz radius (au A)                               
   ENMAX  =  258.689; ENMIN  =  194.016 eV                                                          
   ICORE  =        2    local potential                                                             
   LCOR   =        T    correct aug charges                                                         
   LPAW   =        T    paw PP                                                                      
   EAUG   =  335.092                                                                                
   DEXC   =    0.000                                                                                
   RMAX   =    1.942    core radius for proj-oper                                                   
   RAUG   =    1.300    factor for augmentation sphere                                              
   RDEP   =    1.954    radius for radial grids                                                     
   RDEPT  =    1.744    core radius for aug-charge                                                  
                                                                                                    
   Atomic configuration                                                                             
    6 entries                                                                                       
     n  l   j            E        occ.                                                              
     1  0  0.50     -2405.8406   2.0000                                                             
     2  0  0.50      -211.7007   2.0000                                                             
     2  1  1.50      -156.4958   6.0000                                                             
     3  0  0.50       -17.2562   2.0000                                                             
     3  1  0.50        -7.0085   4.0000                                                             
     3  2  1.50        -6.8029   0.0000                                                             
   Description                                                                                      
     l       E           TYP  RCUT    TYP  RCUT                                                     
     0    -17.2561641     23  1.900                                                                 
     0    -15.8743224     23  1.900                                                                 
     1     -7.0085400     23  1.900                                                                 
     1     -2.7779785     23  1.900                                                                 
     2     -6.8029130     23  1.900                                                                 
  local pseudopotential read in
  partial core-charges read in
  partial kinetic energy density read in
  atomic valenz-charges read in
  non local Contribution for L=           0  read in
    real space projection operators read in
  non local Contribution for L=           0  read in
    real space projection operators read in
  non local Contribution for L=           1  read in
    real space projection operators read in
  non local Contribution for L=           1  read in
    real space projection operators read in
    PAW grid and wavefunctions read in
 
   number of l-projection  operators is LMAX  =           4
   number of lm-projection operators is LMMAX =           8
 
 Optimization of the real space projectors (new method)

 maximal supplied QI-value         = 18.90
 optimisation between [QCUT,QGAM] = [ 10.77, 21.73] = [ 32.49,132.25] Ry 
 Optimized for a Real-space Cutoff    1.38 Angstroem

   l    n(q)    QCUT    max X(q) W(low)/X(q) W(high)/X(q)  e(spline) 
   1      8    10.771     2.836    0.40E-04    0.29E-04    0.12E-06
   1      8    10.771     4.023    0.10E-03    0.48E-04    0.29E-06
   2      8    10.771    73.368    0.42E-03    0.97E-04    0.44E-06
   2      8    10.771    69.010    0.42E-03    0.99E-04    0.45E-06
   0      9    10.771    54.797    0.10E-03    0.56E-04    0.74E-07
   0      9    10.771    24.266    0.89E-04    0.49E-04    0.67E-07
 Optimization of the real space projectors (new method)

 maximal supplied QI-value         = 19.84
 optimisation between [QCUT,QGAM] = [ 10.71, 21.63] = [ 32.15,130.99] Ry 
 Optimized for a Real-space Cutoff    1.19 Angstroem

   l    n(q)    QCUT    max X(q) W(low)/X(q) W(high)/X(q)  e(spline) 
   0      8    10.715   187.594    0.41E-03    0.53E-04    0.66E-07
   0      8    10.715   164.243    0.41E-03    0.53E-04    0.65E-07
   1      7    10.715    67.533    0.19E-03    0.59E-03    0.68E-07
   1      7    10.715    50.729    0.19E-03    0.58E-03    0.67E-07
  PAW_PBE Ni_pv 06Sep2000               :
 energy of atom  1       EATOM=-3501.1230
 kinetic energy error for atom=    0.0925 (will be added to EATOM!!)
  PAW_PBE S 06Sep2000                   :
 energy of atom  2       EATOM= -276.8230
 kinetic energy error for atom=    0.0033 (will be added to EATOM!!)
 
 
 POSCAR: Structure 36 made from 02-1-6.xsd file
  positions in direct lattice
  No initial velocities read in
 exchange correlation table for  LEXCH =        8
   RHO(1)=    0.500       N(1)  =     2000
   RHO(2)=  100.500       N(2)  =     4000
 


--------------------------------------------------------------------------------------------------------


 ion  position               nearest neighbor table
   1  0.580  0.074  0.349-  43 2.25  64 2.26  50 2.26  61 2.36  51 2.36  26 2.53  15 2.53
   2  0.763  0.165  0.227-  44 2.25  61 2.26  51 2.26  52 2.36  62 2.36  16 2.53  27 2.53
   3  0.945  0.256  0.105-  41 2.25  62 2.26  52 2.26  49 2.36  17 2.53  28 2.53
   4  0.398  0.983  0.472-  63 2.26  64 2.36  50 2.36  25 2.53  14 2.53
   5  0.035  0.802  0.268-  45 2.25  55 2.26  68 2.26  65 2.36  53 2.36  29 2.53  20 2.53
   6  0.217  0.893  0.146-  46 2.25  53 2.26  65 2.26  66 2.36  54 2.36  30 2.53  18 2.53
   7  0.399  0.984  0.024-  47 2.25  54 2.26  66 2.26
   8  0.671  0.620  0.512-  67 2.36  56 2.36  31 2.53
   9  0.853  0.711  0.390-  48 2.25  56 2.26  67 2.26  68 2.36  55 2.36  32 2.53  19 2.53
  10  0.126  0.347  0.431-  37 2.25  72 2.26  57 2.36  69 2.36  24 2.53  33 2.53
  11  0.308  0.438  0.309-  38 2.25  57 2.26  69 2.26  58 2.36  70 2.36  34 2.53  21 2.53
  12  0.490  0.529  0.187-  39 2.25  58 2.26  70 2.26  59 2.36  71 2.36  35 2.53  22 2.53
  13  0.672  0.620  0.065-  40 2.25  59 2.26  71 2.26  60 2.36  36 2.53  23 2.53
  14  0.230  0.031  0.407-  55 2.25  63 2.26  37 2.26  64 2.36  38 2.36   4 2.53  25 2.53
  15  0.412  0.122  0.285-  53 2.25  38 2.26  64 2.26  61 2.36  39 2.36  26 2.53   1 2.53
  16  0.595  0.214  0.163-  54 2.25  61 2.26  39 2.26  62 2.36  40 2.36   2 2.53  27 2.53
  17  0.777  0.305  0.041-  62 2.26  40 2.26   3 2.53  28 2.53
  18  0.049  0.941  0.081-  60 2.25  41 2.26  65 2.26  42 2.36  66 2.36  30 2.53   6 2.53
  19  0.685  0.759  0.326-  58 2.25  43 2.26  67 2.26  68 2.36  44 2.36  32 2.53   9 2.53
  20  0.867  0.850  0.203-  59 2.25  68 2.26  44 2.26  41 2.36  65 2.36   5 2.53  29 2.53
  21  0.140  0.486  0.244-  52 2.25  45 2.26  69 2.26  70 2.36  46 2.36  11 2.53  34 2.53
  22  0.322  0.577  0.122-  49 2.25  46 2.26  70 2.26  47 2.36  71 2.36  35 2.53  12 2.53
  23  0.504  0.668  0.000-  47 2.26  71 2.26  13 2.53  36 2.53
  24  0.958  0.395  0.366-  51 2.25  48 2.26  72 2.26  45 2.36  69 2.36  33 2.53  10 2.53
  25  0.398  0.248  0.472-  37 2.26  38 2.36  50 2.36   4 2.53  14 2.53
  26  0.580  0.339  0.349-  67 2.25  38 2.26  50 2.26  39 2.36  51 2.36   1 2.53  15 2.53
  27  0.763  0.430  0.227-  68 2.25  39 2.26  51 2.26  52 2.36  40 2.36  16 2.53   2 2.53
  28  0.945  0.521  0.105-  65 2.25  40 2.26  52 2.26  49 2.36  17 2.53   3 2.53
  29  0.035  0.066  0.268-  69 2.25  44 2.26  55 2.26  41 2.36  53 2.36   5 2.53  20 2.53
  30  0.217  0.157  0.146-  70 2.25  53 2.26  41 2.26  42 2.36  54 2.36   6 2.53  18 2.53
  31  0.671  0.884  0.512-  43 2.36  56 2.36   8 2.53
  32  0.853  0.975  0.390-  72 2.25  56 2.26  43 2.26  44 2.36  55 2.36   9 2.53  19 2.53
  33  0.126  0.611  0.431-  63 2.25  48 2.26  57 2.36  45 2.36  24 2.53  10 2.53
  34  0.308  0.702  0.309-  64 2.25  57 2.26  45 2.26  58 2.36  46 2.36  11 2.53  21 2.53
  35  0.490  0.793  0.187-  61 2.25  58 2.26  46 2.26  59 2.36  47 2.36  12 2.53  22 2.53
  36  0.672  0.884  0.065-  62 2.25  47 2.26  59 2.26  60 2.36  13 2.53  23 2.53
  37  0.184  0.177  0.481-  10 2.25  25 2.26  14 2.26
  38  0.367  0.268  0.359-  11 2.25  26 2.26  15 2.26  25 2.36  14 2.36
  39  0.549  0.359  0.237-  12 2.25  16 2.26  27 2.26  26 2.36  15 2.36
  40  0.731  0.450  0.114-  13 2.25  17 2.26  28 2.26  27 2.36  16 2.36
  41  0.003  0.086  0.155-   3 2.25  30 2.26  18 2.26  29 2.36  20 2.36
  42  0.185  0.177  0.033-  30 2.36  18 2.36
  43  0.639  0.904  0.399-   1 2.25  32 2.26  19 2.26  31 2.36
  44  0.821  0.995  0.277-   2 2.25  29 2.26  20 2.26  32 2.36  19 2.36
  45  0.094  0.631  0.318-   5 2.25  21 2.26  34 2.26  24 2.36  33 2.36
  46  0.276  0.722  0.196-   6 2.25  22 2.26  35 2.26  21 2.36  34 2.36
  47  0.458  0.814  0.074-   7 2.25  23 2.26  36 2.26  22 2.36  35 2.36
  48  0.912  0.540  0.440-   9 2.25  24 2.26  33 2.26
  49  0.127  0.480  0.074-  22 2.25   3 2.36  28 2.36
  50  0.580  0.206  0.441-   1 2.26  26 2.26   4 2.36  25 2.36
  51  0.763  0.298  0.319-  24 2.25  27 2.26   2 2.26  26 2.36   1 2.36
  52  0.945  0.389  0.197-  21 2.25   3 2.26  28 2.26  27 2.36   2 2.36
  53  0.217  0.025  0.237-  15 2.25   6 2.26  30 2.26   5 2.36  29 2.36
  54  0.399  0.116  0.115-  16 2.25   7 2.26  30 2.36   6 2.36
  55  0.035  0.934  0.359-  14 2.25   5 2.26  29 2.26   9 2.36  32 2.36
  56  0.853  0.843  0.481-  32 2.26   9 2.26  31 2.36   8 2.36
  57  0.308  0.570  0.400-  11 2.26  34 2.26  10 2.36  33 2.36
  58  0.490  0.661  0.278-  19 2.25  35 2.26  12 2.26  11 2.36  34 2.36
  59  0.672  0.752  0.156-  20 2.25  13 2.26  36 2.26  35 2.36  12 2.36
  60  0.854  0.843  0.034-  18 2.25  13 2.36  36 2.36
  61  0.549  0.022  0.237-  35 2.25  16 2.26   2 2.26   1 2.36  15 2.36
  62  0.731  0.113  0.114-  36 2.25  17 2.26   3 2.26  16 2.36   2 2.36
  63  0.184  0.840  0.481-  33 2.25   4 2.26  14 2.26
  64  0.367  0.931  0.359-  34 2.25   1 2.26  15 2.26   4 2.36  14 2.36
  65  0.003  0.750  0.155-  28 2.25   6 2.26  18 2.26   5 2.36  20 2.36
  66  0.185  0.841  0.033-   7 2.26   6 2.36  18 2.36
  67  0.639  0.568  0.399-  26 2.25   9 2.26  19 2.26   8 2.36
  68  0.821  0.659  0.277-  27 2.25   5 2.26  20 2.26   9 2.36  19 2.36
  69  0.094  0.295  0.318-  29 2.25  21 2.26  11 2.26  10 2.36  24 2.36
  70  0.276  0.386  0.196-  30 2.25  22 2.26  12 2.26  21 2.36  11 2.36
  71  0.458  0.477  0.074-  13 2.26  23 2.26  22 2.36  12 2.36
  72  0.912  0.204  0.440-  32 2.25  24 2.26  10 2.26
 
  Warning from LATTYP: Monoclinic adjustment (A1->A3, A2->A1, A3->A2)!
  LATTYP: Found a base centered orthorhombic cell.
 ALAT       =     9.5784100000
 B/A-ratio  =     2.1722506661
 C/A-ratio  =     2.1403095979
  
  Lattice vectors:
  
 A1 = (  10.4033537511,  -4.7892050000,   0.0000000000)
 A2 = ( -10.4033537511,  -4.7892050000,   0.0000000000)
 A3 = (   0.0000000000,   0.0000000000, -20.5007628560)


Analysis of symmetry for initial positions (statically):
=====================================================================
 Subroutine PRICEL returns:
 Original cell was already a primitive cell.
 

 Routine SETGRP: Setting up the symmetry group for a 
 base centered orthorhombic supercell.


 Subroutine GETGRP returns: Found  1 space group operations
 (whereof  1 operations were pure point group operations)
 out of a pool of  8 trial point group operations.


The static configuration has the point symmetry C_1 .


Analysis of symmetry for dynamics (positions and initial velocities):
=====================================================================
 Subroutine PRICEL returns:
 Original cell was already a primitive cell.
 

 Routine SETGRP: Setting up the symmetry group for a 
 base centered orthorhombic supercell.


 Subroutine GETGRP returns: Found  1 space group operations
 (whereof  1 operations were pure point group operations)
 out of a pool of  8 trial point group operations.


The dynamic configuration has the point symmetry C_1 .


 Subroutine INISYM returns: Found  1 space group operations
 (whereof  1 operations are pure point group operations),
 and found     1 'primitive' translations


----------------------------------------------------------------------------------------

                                     Primitive cell                                     

  volume of cell :    2042.8516

  direct lattice vectors                    reciprocal lattice vectors
    10.403353751 -4.789205000  0.000000000     0.096122849  0.000000000  0.000000000
     0.000000000  9.578410000  0.000000000     0.048061424  0.104401461  0.000000000
     0.000000000  0.000000000 20.500762856     0.000000000  0.000000000  0.048778673

  length of vectors
    11.452783670  9.578410000 20.500762856     0.096122849  0.114932874  0.048778673

  position of ions in fractional coordinates (direct lattice)
     0.580446796  0.074375138  0.349415127
     0.762560812  0.165432146  0.227316517
     0.944674827  0.256489154  0.105217907
     0.398332781  0.983318131  0.471513737
     0.035189473  0.801746477  0.268016054
     0.217303488  0.892803484  0.145917444
     0.399417503  0.983860492  0.023818834
     0.670961443  0.619632462  0.512213274
     0.853075458  0.710689469  0.390114664
     0.125704120  0.347003800  0.430814200
     0.307818135  0.438060808  0.308715591
     0.489932150  0.529117815  0.186616981
     0.672046165  0.620174823  0.064518371
     0.230358012  0.031433746  0.406995366
     0.412472027  0.122490754  0.284896756
     0.594586043  0.213547761  0.162798147
     0.776700058  0.304604769  0.040699537
     0.049328719  0.940919100  0.081399073
     0.685100689  0.758805085  0.325596293
     0.867214704  0.849862092  0.203497683
     0.139843366  0.486176423  0.244197220
     0.321957381  0.577233431  0.122098610
     0.504071396  0.668290438  0.000000000
     0.957729351  0.395119416  0.366295830
     0.398332781  0.247524131  0.471513737
     0.580446796  0.338581138  0.349415127
     0.762560812  0.429638146  0.227316517
     0.944674827  0.520695154  0.105217907
     0.035189473  0.065952477  0.268016054
     0.217303488  0.157009484  0.145917444
     0.670961443  0.883838462  0.512213274
     0.853075458  0.974895469  0.390114664
     0.125704120  0.611209800  0.430814200
     0.307818135  0.702266808  0.308715591
     0.489932150  0.793323815  0.186616981
     0.672046165  0.884380823  0.064518371
     0.184411117  0.176675299  0.480705402
     0.366525132  0.267732306  0.358606792
     0.548639147  0.358789314  0.236508182
     0.730753162  0.449846321  0.114409572
     0.003381824  0.086160652  0.155109109
     0.185495839  0.177217660  0.033010499
     0.639153794  0.904046637  0.399306329
     0.821267809  0.995103645  0.277207719
     0.093896470  0.631417975  0.317907255
     0.276010485  0.722474983  0.195808645
     0.458124501  0.813531990  0.073710035
     0.911782455  0.540360968  0.440005865
     0.126759941  0.479634711  0.074466233
     0.580417896  0.206463688  0.440762063
     0.762531911  0.297520696  0.318663453
     0.944645926  0.388577703  0.196564843
     0.217274588  0.024892034  0.237264379
     0.399388603  0.115949042  0.115165769
     0.035160573  0.933835026  0.359362989
     0.853046557  0.842778019  0.481461599
     0.307789234  0.570149357  0.400062526
     0.489903249  0.661206365  0.277963916
     0.672017264  0.752263372  0.155865306
     0.854131279  0.843320380  0.033766696
     0.548639147  0.022359314  0.236508182
     0.730753162  0.113416321  0.114409572
     0.184411117  0.840245299  0.480705402
     0.366525132  0.931302306  0.358606792
     0.003381824  0.749730652  0.155109109
     0.185495839  0.840787660  0.033010499
     0.639153794  0.567616637  0.399306329
     0.821267809  0.658673645  0.277207719
     0.093896470  0.294987975  0.317907255
     0.276010485  0.386044983  0.195808645
     0.458124501  0.477101990  0.073710035
     0.911782455  0.203930968  0.440005865

  ion indices of the primitive-cell ions
   primitive index   ion index
                 1           1
                 2           2
                 3           3
                 4           4
                 5           5
                 6           6
                 7           7
                 8           8
                 9           9
                10          10
                11          11
                12          12
                13          13
                14          14
                15          15
                16          16
                17          17
                18          18
                19          19
                20          20
                21          21
                22          22
                23          23
                24          24
                25          25
                26          26
                27          27
                28          28
                29          29
                30          30
                31          31
                32          32
                33          33
                34          34
                35          35
                36          36
                37          37
                38          38
                39          39
                40          40
                41          41
                42          42
                43          43
                44          44
                45          45
                46          46
                47          47
                48          48
                49          49
                50          50
                51          51
                52          52
                53          53
                54          54
                55          55
                56          56
                57          57
                58          58
                59          59
                60          60
                61          61
                62          62
                63          63
                64          64
                65          65
                66          66
                67          67
                68          68
                69          69
                70          70
                71          71
                72          72

----------------------------------------------------------------------------------------

 
 
 KPOINTS: gamma-point-only calculation. no periodi

Automatic generation of k-mesh.
Space group operators:
 irot       det(A)        alpha          n_x          n_y          n_z        tau_x        tau_y        tau_z
    1     1.000000     0.000000     1.000000     0.000000     0.000000     0.000000     0.000000     0.000000
 
 Subroutine IBZKPT returns following result:
 ===========================================
 
 Found      1 irreducible k-points:
 
 Following reciprocal coordinates:
            Coordinates               Weight
  0.000000  0.000000  0.000000      1.000000
 
 Following cartesian coordinates:
            Coordinates               Weight
  0.000000  0.000000  0.000000      1.000000
 


--------------------------------------------------------------------------------------------------------




 Dimension of arrays:
   k-points           NKPTS =      1   k-points in BZ     NKDIM =      1   number of bands    NBANDS=    480
   number of dos      NEDOS =    301   number of ions     NIONS =     72
   non local maximal  LDIM  =      6   non local SUM 2l+1 LMDIM =     18
   total plane-waves  NPLWV = 324000
   max r-space proj   IRMAX =   1799   max aug-charges    IRDMAX=   5196
   dimension x,y,z NGX =    60 NGY =   50 NGZ =  108
   dimension x,y,z NGXF=   120 NGYF=  100 NGZF=  216
   support grid    NGXF=   120 NGYF=  100 NGZF=  216
   ions per type =              36  36
   NGX,Y,Z   is equivalent  to a cutoff of   8.71,  8.68,  8.76 a.u.
   NGXF,Y,Z  is equivalent  to a cutoff of  17.42, 17.36, 17.52 a.u.

 SYSTEM =  "Millerite NiS"                         
 POSCAR =  Structure 36 made from 02-1-6.xsd file  

 Startparameter for this run:
   NWRITE =      2    write-flag & timer
   PREC   = normal    normal or accurate (medium, high low for compatibility)
   ISTART =      0    job   : 0-new  1-cont  2-samecut
   ICHARG =      2    charge: 1-file 2-atom 10-const
   ISPIN  =      1    spin polarized calculation?
   LNONCOLLINEAR =      F non collinear calculations
   LSORBIT =      F    spin-orbit coupling
   INIWAV =      1    electr: 0-lowe 1-rand  2-diag
   LASPH  =      F    aspherical Exc in radial PAW
   METAGGA=      F    non-selfconsistent MetaGGA calc.

 Electronic Relaxation 1
   ENCUT  =  450.0 eV  33.07 Ry    5.75 a.u.  19.81 16.57 35.46*2*pi/ulx,y,z
   ENINI  =  450.0     initial cutoff
   ENAUG  =  703.4 eV  augmentation charge cutoff
   NELM   =    100;   NELMIN=  2; NELMDL= -5     # of ELM steps 
   EDIFF  = 0.1E-03   stopping-criterion for ELM
   LREAL  =      T    real-space projection
   NLSPLINE    = F    spline interpolate recip. space projectors
   LCOMPAT=      F    compatible to vasp.4.4
   GGA_COMPAT  = T    GGA compatible to vasp.4.4-vasp.4.6
   LMAXPAW     = -100 max onsite density
   LMAXMIX     =    2 max onsite mixed and CHGCAR
   VOSKOWN=      0    Vosko Wilk Nusair interpolation
   ROPT   =   -0.00050  -0.00050
 Ionic relaxation
   EDIFFG = 0.1E-02   stopping-criterion for IOM
   NSW    =      0    number of steps for IOM
   NBLOCK =      1;   KBLOCK =      1    inner block; outer block 
   IBRION =     -1    ionic relax: 0-MD 1-quasi-New 2-CG
   NFREE  =      0    steps in history (QN), initial steepest desc. (CG)
   ISIF   =      2    stress and relaxation
   IWAVPR =     10    prediction:  0-non 1-charg 2-wave 3-comb
   ISYM   =      2    0-nonsym 1-usesym 2-fastsym
   LCORR  =      T    Harris-Foulkes like correction to forces

   POTIM  = 0.5000    time-step for ionic-motion
   TEIN   =    0.0    initial temperature
   TEBEG  =    0.0;   TEEND  =   0.0 temperature during run
   SMASS  =  -3.00    Nose mass-parameter (am)
   estimated Nose-frequenzy (Omega)   =  0.10E-29 period in steps = 0.13E+47 mass=  -0.300E-26a.u.
   SCALEE = 1.0000    scale energy and forces
   NPACO  =    256;   APACO  = 16.0  distance and # of slots for P.C.
   PSTRESS=    0.0 pullay stress

  Mass of Ions in am
   POMASS =  58.69 32.07
  Ionic Valenz
   ZVAL   =  16.00  6.00
  Atomic Wigner-Seitz radii
   RWIGS  =  -1.00 -1.00
  virtual crystal weights 
   VCA    =   1.00  1.00
   NELECT =     792.0000    total number of electrons
   NUPDOWN=      -1.0000    fix difference up-down

 DOS related values:
   EMIN   =  10.00;   EMAX   =-10.00  energy-range for DOS
   EFERMI =   0.00
   ISMEAR =     0;   SIGMA  =   0.20  broadening in eV -4-tet -1-fermi 0-gaus

 Electronic relaxation 2 (details)
   IALGO  =     38    algorithm
   LDIAG  =      T    sub-space diagonalisation (order eigenvalues)
   LSUBROT=      F    optimize rotation matrix (better conditioning)
   TURBO    =      0    0=normal 1=particle mesh
   IRESTART =      0    0=no restart 2=restart with 2 vectors
   NREBOOT  =      0    no. of reboots
   NMIN     =      0    reboot dimension
   EREF     =   0.00    reference energy to select bands
   IMIX   =      4    mixing-type and parameters
     AMIX     =   0.40;   BMIX     =  1.00
     AMIX_MAG =   1.60;   BMIX_MAG =  1.00
     AMIN     =   0.10
     WC   =   100.;   INIMIX=   1;  MIXPRE=   1;  MAXMIX= -45

 Intra band minimization:
   WEIMIN = 0.0000     energy-eigenvalue tresh-hold
   EBREAK =  0.52E-07  absolut break condition
   DEPER  =   0.30     relativ break condition  

   TIME   =   0.40     timestep for ELM

  volume/ion in A,a.u.               =      28.37       191.47
  Fermi-wavevector in a.u.,A,eV,Ry     =   1.193725  2.255813 19.388021  1.424979
  Thomas-Fermi vector in A             =   2.329732
 
 Write flags
   LWAVE        =      F    write WAVECAR
   LDOWNSAMPLE  =      F    k-point downsampling of WAVECAR
   LCHARG       =      F    write CHGCAR
   LVTOT        =      F    write LOCPOT, total local potential
   LVHAR        =      F    write LOCPOT, Hartree potential only
   LELF         =      F    write electronic localiz. function (ELF)
   LORBIT       =      0    0 simple, 1 ext, 2 COOP (PROOUT), +10 PAW based schemes


 Dipole corrections
   LMONO  =      F    monopole corrections only (constant potential shift)
   LDIPOL =      F    correct potential (dipole corrections)
   IDIPOL =      0    1-x, 2-y, 3-z, 4-all directions 
   EPSILON=  1.0000000 bulk dielectric constant

 Exchange correlation treatment:
   GGA     =    --    GGA type
   LEXCH   =     8    internal setting for exchange type
   VOSKOWN=      0    Vosko Wilk Nusair interpolation
   LHFCALC =     F    Hartree Fock is set to
   LHFONE  =     F    Hartree Fock one center treatment
   AEXX    =    0.0000 exact exchange contribution

 Linear response parameters
   LEPSILON=     F    determine dielectric tensor
   LRPA    =     F    only Hartree local field effects (RPA)
   LNABLA  =     F    use nabla operator in PAW spheres
   LVEL    =     F    velocity operator in full k-point grid
   LINTERFAST=   F  fast interpolation
   KINTER  =     0    interpolate to denser k-point grid
   CSHIFT  =0.1000    complex shift for real part using Kramers Kronig
   OMEGAMAX=  -1.0    maximum frequency
   DEG_THRESHOLD= 0.2000000E-02 threshold for treating states as degnerate
   RTIME   =   -0.100 relaxation time in fs
  (WPLASMAI=    0.000 imaginary part of plasma frequency in eV, 0.658/RTIME)
   DFIELD  = 0.0000000 0.0000000 0.0000000 field for delta impulse in time
 
 Orbital magnetization related:
   ORBITALMAG=     F  switch on orbital magnetization
   LCHIMAG   =     F  perturbation theory with respect to B field
   DQ        =  0.001000  dq finite difference perturbation B field
   LLRAUG    =     F  two centre corrections for induced B field



--------------------------------------------------------------------------------------------------------


 Static calculation
 charge density and potential will be updated during run
 non-spin polarized calculation
 Variant of blocked Davidson
 Davidson routine will perform the subspace rotation
 perform sub-space diagonalisation
    after iterative eigenvector-optimisation
 modified Broyden-mixing scheme, WC =      100.0
 initial mixing is a Kerker type mixing with AMIX =  0.4000 and BMIX =      1.0000
 Hartree-type preconditioning will be used
 using additional bands           84
 real space projection scheme for non local part
 use partial core corrections
 calculate Harris-corrections to forces 
   (improved forces if not selfconsistent)
 use gradient corrections 
 use of overlap-Matrix (Vanderbilt PP)
 Gauss-broadening in eV      SIGMA  =   0.20


--------------------------------------------------------------------------------------------------------


  energy-cutoff  :      450.00
  volume of cell :     2042.85
      direct lattice vectors                 reciprocal lattice vectors
    10.403353751 -4.789205000  0.000000000     0.096122849  0.000000000  0.000000000
     0.000000000  9.578410000  0.000000000     0.048061424  0.104401461  0.000000000
     0.000000000  0.000000000 20.500762856     0.000000000  0.000000000  0.048778673

  length of vectors
    11.452783670  9.578410000 20.500762856     0.096122849  0.114932874  0.048778673


 
 k-points in units of 2pi/SCALE and weight: gamma-point-only calculation. no periodi
   0.00000000  0.00000000  0.00000000       1.000
 
 k-points in reciprocal lattice and weights: gamma-point-only calculation. no periodi
   0.00000000  0.00000000  0.00000000       1.000
 
 position of ions in fractional coordinates (direct lattice) 
   0.58044680  0.07437514  0.34941513
   0.76256081  0.16543215  0.22731652
   0.94467483  0.25648915  0.10521791
   0.39833278  0.98331813  0.47151374
   0.03518947  0.80174648  0.26801605
   0.21730349  0.89280348  0.14591744
   0.39941750  0.98386049  0.02381883
   0.67096144  0.61963246  0.51221327
   0.85307546  0.71068947  0.39011466
   0.12570412  0.34700380  0.43081420
   0.30781813  0.43806081  0.30871559
   0.48993215  0.52911781  0.18661698
   0.67204616  0.62017482  0.06451837
   0.23035801  0.03143375  0.40699537
   0.41247203  0.12249075  0.28489676
   0.59458604  0.21354776  0.16279815
   0.77670006  0.30460477  0.04069954
   0.04932872  0.94091910  0.08139907
   0.68510069  0.75880508  0.32559629
   0.86721470  0.84986209  0.20349768
   0.13984337  0.48617642  0.24419722
   0.32195738  0.57723343  0.12209861
   0.50407140  0.66829044  0.00000000
   0.95772935  0.39511942  0.36629583
   0.39833278  0.24752413  0.47151374
   0.58044680  0.33858114  0.34941513
   0.76256081  0.42963815  0.22731652
   0.94467483  0.52069515  0.10521791
   0.03518947  0.06595248  0.26801605
   0.21730349  0.15700948  0.14591744
   0.67096144  0.88383846  0.51221327
   0.85307546  0.97489547  0.39011466
   0.12570412  0.61120980  0.43081420
   0.30781813  0.70226681  0.30871559
   0.48993215  0.79332382  0.18661698
   0.67204616  0.88438082  0.06451837
   0.18441112  0.17667530  0.48070540
   0.36652513  0.26773231  0.35860679
   0.54863915  0.35878931  0.23650818
   0.73075316  0.44984632  0.11440957
   0.00338182  0.08616065  0.15510911
   0.18549584  0.17721766  0.03301050
   0.63915379  0.90404664  0.39930633
   0.82126781  0.99510365  0.27720772
   0.09389647  0.63141797  0.31790726
   0.27601049  0.72247498  0.19580864
   0.45812450  0.81353199  0.07371003
   0.91178246  0.54036097  0.44000587
   0.12675994  0.47963471  0.07446623
   0.58041790  0.20646369  0.44076206
   0.76253191  0.29752070  0.31866345
   0.94464593  0.38857770  0.19656484
   0.21727459  0.02489203  0.23726438
   0.39938860  0.11594904  0.11516577
   0.03516057  0.93383503  0.35936299
   0.85304656  0.84277802  0.48146160
   0.30778923  0.57014936  0.40006253
   0.48990325  0.66120636  0.27796392
   0.67201726  0.75226337  0.15586531
   0.85413128  0.84332038  0.03376670
   0.54863915  0.02235931  0.23650818
   0.73075316  0.11341632  0.11440957
   0.18441112  0.84024530  0.48070540
   0.36652513  0.93130231  0.35860679
   0.00338182  0.74973065  0.15510911
   0.18549584  0.84078766  0.03301050
   0.63915379  0.56761664  0.39930633
   0.82126781  0.65867365  0.27720772
   0.09389647  0.29498797  0.31790726
   0.27601049  0.38604498  0.19580864
   0.45812450  0.47710199  0.07371003
   0.91178246  0.20393097  0.44000587
 
 position of ions in cartesian coordinates  (Angst):
   6.03859335 -2.06748313  7.16327666
   7.93318988 -2.06748313  4.66016201
   9.82778641 -2.06748313  2.15704736
   4.14399683  7.51092687  9.66639131
   0.36608854  7.51092687  5.49453356
   2.26068506  7.51092687  2.99141892
   4.15528158  7.51092687  0.48830427
   6.98024924  2.72172187 10.50076286
   8.87484577  2.72172187  7.99764821
   1.30774443  2.72172187  8.83201975
   3.20234095  2.72172187  6.32890512
   5.09693747  2.72172187  3.82579047
   6.99153399  2.72172187  1.32267582
   2.39649589 -0.80214644  8.34371548
   4.29109241 -0.80214643  5.84060083
   6.18568894 -0.80214644  3.33748621
   8.08028546 -0.80214644  0.83437156
   0.51318411  8.77626357  1.66874309
   7.12734482  3.98705857  6.67497239
   9.02194134  3.98705856  4.17185774
   1.45484001  3.98705856  5.00622930
   3.34943653  3.98705857  2.50311465
   5.24403305  3.98705856  0.00000000
   9.96359724 -0.80214643  7.50934395
   4.14399683  0.46319027  9.66639131
   6.03859335  0.46319026  7.16327666
   7.93318988  0.46319026  4.66016201
   9.82778641  0.46319027  2.15704736
   0.36608854  0.46319027  5.49453356
   2.26068506  0.46319026  2.99141892
   6.98024924  5.25239527 10.50076286
   8.87484577  5.25239526  7.99764821
   1.30774443  5.25239526  8.83201975
   3.20234095  5.25239527  6.32890512
   5.09693747  5.25239526  3.82579047
   6.99153399  5.25239527  1.32267582
   1.91849409  0.80908581  9.85482745
   3.81309061  0.80908580  7.35171280
   5.70768713  0.80908581  4.84859815
   7.60228365  0.80908580  2.34548350
   0.03518231  0.80908580  3.17985506
   1.92977883  0.80908581  0.67674041
   6.64934302  5.59829080  8.18608436
   8.54393954  5.59829081  5.68296971
   0.97683819  5.59829080  6.51734124
   2.87143471  5.59829081  4.01422660
   4.76603125  5.59829080  1.51111195
   9.48559542  0.80908581  9.02045589
   1.31872851  3.98705857  1.52661458
   6.03829270 -0.80214644  9.03595853
   7.93288922 -0.80214643  6.53284388
   9.82748574 -0.80214644  4.02972923
   2.26038440 -0.80214644  4.86410077
   4.15498092 -0.80214643  2.36098612
   0.36578788  8.77626356  7.36721542
   8.87454510  3.98705857  9.87033007
   3.20204028  3.98705856  8.20158697
   5.09663680  3.98705857  5.69847232
   6.99123332  3.98705856  3.19535768
   8.88582985  3.98705857  0.69224303
   5.70768713 -2.41337867  4.84859815
   7.60228365 -2.41337867  2.34548350
   1.91849409  7.16503133  9.85482745
   3.81309061  7.16503133  7.35171280
   0.03518231  7.16503133  3.17985506
   1.92977883  7.16503133  0.67674041
   6.64934302  2.37582633  8.18608436
   8.54393954  2.37582633  5.68296971
   0.97683819  2.37582633  6.51734124
   2.87143471  2.37582633  4.01422660
   4.76603125  2.37582632  1.51111195
   9.48559542 -2.41337867  9.02045589
 


--------------------------------------------------------------------------------------------------------


 use parallel FFT for orbitals z direction half grid
 k-point   1 :   0.0000 0.0000 0.0000  plane waves:   22147

 maximum and minimum number of plane-waves per node :      3693     3689

 maximum number of plane-waves:     22147
 maximum index in each direction: 
   IXMAX=   19   IYMAX=   16   IZMAX=   35
   IXMIN=  -19   IYMIN=  -16   IZMIN=    0


 real space projection operators:
  total allocation   :      11040.19 KBytes
  max/ min on nodes  :       1843.50       1834.75


 parallel 3D FFT for wavefunctions:
    minimum data exchange during FFTs selected (reduces bandwidth)
 parallel 3D FFT for charge:
    minimum data exchange during FFTs selected (reduces bandwidth)


 total amount of memory used by VASP MPI-rank0    45095. kBytes
=======================================================================

   base      :      30000. kBytes
   nonlr-proj:       2260. kBytes
   fftplans  :       3298. kBytes
   grid      :       5820. kBytes
   one-center:         93. kBytes
   wavefun   :       3624. kBytes
 
     INWAV:  cpu time    0.0000: real time    0.0000
 Broyden mixing: mesh for mixing (old mesh)
   NGX = 39   NGY = 33   NGZ = 71
  (NGX  =120   NGY  =100   NGZ  =216)
  gives a total of  91377 points

 initial charge density was supplied:
 charge density of overlapping atoms calculated
 number of electron     792.0000000 magnetization 
 keeping initial charge density in first step


--------------------------------------------------------------------------------------------------------


 Maximum index for non-local projection operator          299
 Maximum index for augmentation-charges          328 (set IRDMAX)


--------------------------------------------------------------------------------------------------------


 First call to EWALD:  gamma=   0.140
 Maximum number of real-space cells 3x 4x 2
 Maximum number of reciprocal cells 3x 2x 4

    FEWALD:  cpu time    0.0031: real time    0.0031


--------------------------------------- Iteration      1(   1)  ---------------------------------------


    POTLOK:  cpu time    0.0520: real time    0.0549
    SETDIJ:  cpu time    0.0052: real time    0.0069
     EDDAV:  cpu time    2.2204: real time    2.2275
       DOS:  cpu time    0.0007: real time    0.0008
    --------------------------------------------
      LOOP:  cpu time    2.2783: real time    2.2901

 eigenvalue-minimisations  :  1184
 total energy-change (2. order) : 0.9594520E+04  (-0.5079103E+05)
 number of electron     792.0000000 magnetization 
 augmentation part      792.0000000 magnetization 

 Free energy of the ion-electron system (eV)
  ---------------------------------------------------
  alpha Z        PSCENC =      1820.93486007
  Ewald energy   TEWEN  =    169502.37400194
  -Hartree energ DENC   =   -291804.15154107
  -exchange      EXHF   =         0.00000000
  -V(xc)+E(xc)   XCENC  =      3650.89107564
  PAW double counting   =    112729.53333415  -117641.51188735
  entropy T*S    EENTRO =        -0.32120394
  eigenvalues    EBANDS =     -4665.83410959
  atomic energy  EATOM  =    136002.60505376
  Solvation  Ediel_sol  =         0.00000000
  ---------------------------------------------------
  free energy    TOTEN  =      9594.51958360 eV

  energy without entropy =     9594.84078754  energy(sigma->0) =     9594.68018557


--------------------------------------------------------------------------------------------------------




--------------------------------------- Iteration      1(   2)  ---------------------------------------


     EDDAV:  cpu time    1.9606: real time    1.9658
       DOS:  cpu time    0.0006: real time    0.0006
    --------------------------------------------
      LOOP:  cpu time    1.9612: real time    1.9663

 eigenvalue-minimisations  :  1024
 total energy-change (2. order) :-0.9020984E+04  (-0.8691101E+04)
 number of electron     792.0000000 magnetization 
 augmentation part      792.0000000 magnetization 

 Free energy of the ion-electron system (eV)
  ---------------------------------------------------
  alpha Z        PSCENC =      1820.93486007
  Ewald energy   TEWEN  =    169502.37400194
  -Hartree energ DENC   =   -291804.15154107
  -exchange      EXHF   =         0.00000000
  -V(xc)+E(xc)   XCENC  =      3650.89107564
  PAW double counting   =    112729.53333415  -117641.51188735
  entropy T*S    EENTRO =        -0.85794864
  eigenvalues    EBANDS =    -13686.28102581
  atomic energy  EATOM  =    136002.60505376
  Solvation  Ediel_sol  =         0.00000000
  ---------------------------------------------------
  free energy    TOTEN  =       573.53592269 eV

  energy without entropy =      574.39387133  energy(sigma->0) =      573.96489701


--------------------------------------------------------------------------------------------------------




--------------------------------------- Iteration      1(   3)  ---------------------------------------


     EDDAV:  cpu time    2.0879: real time    2.0929
       DOS:  cpu time    0.0006: real time    0.0006
    --------------------------------------------
      LOOP:  cpu time    2.0885: real time    2.0935

 eigenvalue-minimisations  :  1112
 total energy-change (2. order) :-0.9184421E+03  (-0.8679909E+03)
 number of electron     792.0000000 magnetization 
 augmentation part      792.0000000 magnetization 

 Free energy of the ion-electron system (eV)
  ---------------------------------------------------
  alpha Z        PSCENC =      1820.93486007
  Ewald energy   TEWEN  =    169502.37400194
  -Hartree energ DENC   =   -291804.15154107
  -exchange      EXHF   =         0.00000000
  -V(xc)+E(xc)   XCENC  =      3650.89107564
  PAW double counting   =    112729.53333415  -117641.51188735
  entropy T*S    EENTRO =        -1.23906044
  eigenvalues    EBANDS =    -14604.34202766
  atomic energy  EATOM  =    136002.60505376
  Solvation  Ediel_sol  =         0.00000000
  ---------------------------------------------------
  free energy    TOTEN  =      -344.90619096 eV

  energy without entropy =     -343.66713052  energy(sigma->0) =     -344.28666074


--------------------------------------------------------------------------------------------------------




--------------------------------------- Iteration      1(   4)  ---------------------------------------


     EDDAV:  cpu time    2.1675: real time    2.1740
       DOS:  cpu time    0.0006: real time    0.0006
    --------------------------------------------
      LOOP:  cpu time    2.1681: real time    2.1746

 eigenvalue-minimisations  :  1152
 total energy-change (2. order) :-0.5771124E+02  (-0.5705463E+02)
 number of electron     792.0000000 magnetization 
 augmentation part      792.0000000 magnetization 

 Free energy of the ion-electron system (eV)
  ---------------------------------------------------
  alpha Z        PSCENC =      1820.93486007
  Ewald energy   TEWEN  =    169502.37400194
  -Hartree energ DENC   =   -291804.15154107
  -exchange      EXHF   =         0.00000000
  -V(xc)+E(xc)   XCENC  =      3650.89107564
  PAW double counting   =    112729.53333415  -117641.51188735
  entropy T*S    EENTRO =        -1.32323646
  eigenvalues    EBANDS =    -14661.96909345
  atomic energy  EATOM  =    136002.60505376
  Solvation  Ediel_sol  =         0.00000000
  ---------------------------------------------------
  free energy    TOTEN  =      -402.61743277 eV

  energy without entropy =     -401.29419632  energy(sigma->0) =     -401.95581454


--------------------------------------------------------------------------------------------------------




--------------------------------------- Iteration      1(   5)  ---------------------------------------


     EDDAV:  cpu time    2.2266: real time    2.2342
       DOS:  cpu time    0.0006: real time    0.0006
    CHARGE:  cpu time    0.0400: real time    0.0402
    MIXING:  cpu time    0.0030: real time    0.0031
    --------------------------------------------
      LOOP:  cpu time    2.2702: real time    2.2781

 eigenvalue-minimisations  :  1208
 total energy-change (2. order) :-0.1855909E+01  (-0.1852614E+01)
 number of electron     792.0000254 magnetization 
 augmentation part      286.2845439 magnetization 

 Broyden mixing:
  rms(total) = 0.82285E+01    rms(broyden)= 0.82122E+01
  rms(prec ) = 0.86531E+01
  weight for this iteration     100.00

 Free energy of the ion-electron system (eV)
  ---------------------------------------------------
  alpha Z        PSCENC =      1820.93486007
  Ewald energy   TEWEN  =    169502.37400194
  -Hartree energ DENC   =   -291804.15154107
  -exchange      EXHF   =         0.00000000
  -V(xc)+E(xc)   XCENC  =      3650.89107564
  PAW double counting   =    112729.53333415  -117641.51188735
  entropy T*S    EENTRO =        -1.32475799
  eigenvalues    EBANDS =    -14663.82348131
  atomic energy  EATOM  =    136002.60505376
  Solvation  Ediel_sol  =         0.00000000
  ---------------------------------------------------
  free energy    TOTEN  =      -404.47334216 eV

  energy without entropy =     -403.14858417  energy(sigma->0) =     -403.81096316


--------------------------------------------------------------------------------------------------------




--------------------------------------- Iteration      1(   6)  ---------------------------------------


    POTLOK:  cpu time    0.0481: real time    0.0482
    SETDIJ:  cpu time    0.0047: real time    0.0064
     EDDAV:  cpu time    2.1533: real time    2.1585
       DOS:  cpu time    0.0006: real time    0.0006
    CHARGE:  cpu time    0.0387: real time    0.0387
    MIXING:  cpu time    0.0022: real time    0.0023
    --------------------------------------------
      LOOP:  cpu time    2.2476: real time    2.2548

 eigenvalue-minimisations  :  1152
 total energy-change (2. order) :-0.8502059E+02  (-0.9751851E+02)
 number of electron     792.0000252 magnetization 
 augmentation part      352.2113393 magnetization 

 Broyden mixing:
  rms(total) = 0.15893E+02    rms(broyden)= 0.15889E+02
  rms(prec ) = 0.16559E+02
  weight for this iteration     100.00

 eigenvalues of (default mixing * dielectric matrix)
  average eigenvalue GAMMA=   0.2234
  0.2234

 Free energy of the ion-electron system (eV)
  ---------------------------------------------------
  alpha Z        PSCENC =      1820.93486007
  Ewald energy   TEWEN  =    169502.37400194
  -Hartree energ DENC   =   -289076.97572563
  -exchange      EXHF   =         0.00000000
  -V(xc)+E(xc)   XCENC  =      3574.39434993
  PAW double counting   =    114508.33485119  -119181.20090289
  entropy T*S    EENTRO =        -0.94898152
  eigenvalues    EBANDS =    -17639.01143687
  atomic energy  EATOM  =    136002.60505376
  Solvation  Ediel_sol  =         0.00000000
  ---------------------------------------------------
  free energy    TOTEN  =      -489.49393003 eV

  energy without entropy =     -488.54494851  energy(sigma->0) =     -489.01943927


--------------------------------------------------------------------------------------------------------




--------------------------------------- Iteration      1(   7)  ---------------------------------------


    POTLOK:  cpu time    0.0469: real time    0.0470
    SETDIJ:  cpu time    0.0050: real time    0.0050
     EDDAV:  cpu time    2.1062: real time    2.1113
       DOS:  cpu time    0.0006: real time    0.0006
    CHARGE:  cpu time    0.0388: real time    0.0389
    MIXING:  cpu time    0.0018: real time    0.0018
    --------------------------------------------
      LOOP:  cpu time    2.1992: real time    2.2046

 eigenvalue-minimisations  :  1120
 total energy-change (2. order) : 0.1135931E+03  (-0.1785322E+02)
 number of electron     792.0000253 magnetization 
 augmentation part      332.7676887 magnetization 

 Broyden mixing:
  rms(total) = 0.64378E+01    rms(broyden)= 0.64362E+01
  rms(prec ) = 0.68108E+01
  weight for this iteration     100.00

 eigenvalues of (default mixing * dielectric matrix)
  average eigenvalue GAMMA=   0.4962
  0.4962  0.4962

 Free energy of the ion-electron system (eV)
  ---------------------------------------------------
  alpha Z        PSCENC =      1820.93486007
  Ewald energy   TEWEN  =    169502.37400194
  -Hartree energ DENC   =   -290299.64911214
  -exchange      EXHF   =         0.00000000
  -V(xc)+E(xc)   XCENC  =      3602.74005429
  PAW double counting   =    118529.91026327  -123344.35962600
  entropy T*S    EENTRO =        -0.86444306
  eigenvalues    EBANDS =    -16189.59193191
  atomic energy  EATOM  =    136002.60505376
  Solvation  Ediel_sol  =         0.00000000
  ---------------------------------------------------
  free energy    TOTEN  =      -375.90087978 eV

  energy without entropy =     -375.03643673  energy(sigma->0) =     -375.46865826


--------------------------------------------------------------------------------------------------------




--------------------------------------- Iteration      1(   8)  ---------------------------------------


    POTLOK:  cpu time    0.0476: real time    0.0477
    SETDIJ:  cpu time    0.0048: real time    0.0048
     EDDAV:  cpu time    2.5275: real time    2.5348
       DOS:  cpu time    0.0007: real time    0.0007
    CHARGE:  cpu time    0.0383: real time    0.0384
    MIXING:  cpu time    0.0023: real time    0.0023
    --------------------------------------------
      LOOP:  cpu time    2.6211: real time    2.6286

 eigenvalue-minimisations  :  1384
 total energy-change (2. order) :-0.1415524E+03  (-0.1530301E+02)
 number of electron     792.0000117 magnetization 
 augmentation part      303.8061819 magnetization 

 Broyden mixing:
  rms(total) = 0.17671E+02    rms(broyden)= 0.17668E+02
  rms(prec ) = 0.22137E+02
  weight for this iteration     100.00

 eigenvalues of (default mixing * dielectric matrix)
  average eigenvalue GAMMA=   0.4078
  0.6484  0.4772  0.0976

 Free energy of the ion-electron system (eV)
  ---------------------------------------------------
  alpha Z        PSCENC =      1820.93486007
  Ewald energy   TEWEN  =    169502.37400194
  -Hartree energ DENC   =   -290861.56790985
  -exchange      EXHF   =         0.00000000
  -V(xc)+E(xc)   XCENC  =      3625.21141748
  PAW double counting   =    123601.50270942  -128524.81655392
  entropy T*S    EENTRO =        -0.72217187
  eigenvalues    EBANDS =    -15682.97472227
  atomic energy  EATOM  =    136002.60505376
  Solvation  Ediel_sol  =         0.00000000
  ---------------------------------------------------
  free energy    TOTEN  =      -517.45331524 eV

  energy without entropy =     -516.73114337  energy(sigma->0) =     -517.09222931


--------------------------------------------------------------------------------------------------------




--------------------------------------- Iteration      1(   9)  ---------------------------------------


    POTLOK:  cpu time    0.0473: real time    0.0496
    SETDIJ:  cpu time    0.0045: real time    0.0062
     EDDAV:  cpu time    2.2105: real time    2.2157
       DOS:  cpu time    0.0006: real time    0.0006
    CHARGE:  cpu time    0.0390: real time    0.0391
    MIXING:  cpu time    0.0020: real time    0.0020
    --------------------------------------------
      LOOP:  cpu time    2.3038: real time    2.3133

 eigenvalue-minimisations  :  1192
 total energy-change (2. order) : 0.1462216E+03  (-0.1394303E+02)
 number of electron     792.0000305 magnetization 
 augmentation part      307.8060927 magnetization 

 Broyden mixing:
  rms(total) = 0.66867E+01    rms(broyden)= 0.66780E+01
  rms(prec ) = 0.75371E+01
  weight for this iteration     100.00

 eigenvalues of (default mixing * dielectric matrix)
  average eigenvalue GAMMA=   0.4043
  0.9114  0.3633  0.2592  0.0835

 Free energy of the ion-electron system (eV)
  ---------------------------------------------------
  alpha Z        PSCENC =      1820.93486007
  Ewald energy   TEWEN  =    169502.37400194
  -Hartree energ DENC   =   -291012.00199552
  -exchange      EXHF   =         0.00000000
  -V(xc)+E(xc)   XCENC  =      3625.19801806
  PAW double counting   =    125307.13252755  -130246.12297642
  entropy T*S    EENTRO =        -1.32220201
  eigenvalues    EBANDS =    -15370.02895633
  atomic energy  EATOM  =    136002.60505376
  Solvation  Ediel_sol  =         0.00000000
  ---------------------------------------------------
  free energy    TOTEN  =      -371.23166891 eV

  energy without entropy =     -369.90946690  energy(sigma->0) =     -370.57056791


--------------------------------------------------------------------------------------------------------




--------------------------------------- Iteration      1(  10)  ---------------------------------------


    POTLOK:  cpu time    0.0466: real time    0.0467
    SETDIJ:  cpu time    0.0049: real time    0.0049
     EDDAV:  cpu time    2.4296: real time    2.4353
       DOS:  cpu time    0.0006: real time    0.0006
    CHARGE:  cpu time    0.0388: real time    0.0389
    MIXING:  cpu time    0.0021: real time    0.0021
    --------------------------------------------
      LOOP:  cpu time    2.5226: real time    2.5285

 eigenvalue-minimisations  :  1336
 total energy-change (2. order) :-0.1208297E+01  (-0.7092901E+01)
 number of electron     792.0000253 magnetization 
 augmentation part      307.2318479 magnetization 

 Broyden mixing:
  rms(total) = 0.55601E+01    rms(broyden)= 0.55538E+01
  rms(prec ) = 0.62288E+01
  weight for this iteration     100.00

 eigenvalues of (default mixing * dielectric matrix)
  average eigenvalue GAMMA=   0.5541
  1.7423  0.4103  0.4103  0.1124  0.0954

 Free energy of the ion-electron system (eV)
  ---------------------------------------------------
  alpha Z        PSCENC =      1820.93486007
  Ewald energy   TEWEN  =    169502.37400194
  -Hartree energ DENC   =   -291097.72666371
  -exchange      EXHF   =         0.00000000
  -V(xc)+E(xc)   XCENC  =      3624.68814920
  PAW double counting   =    126931.69225734  -131886.05252496
  entropy T*S    EENTRO =        -1.06264309
  eigenvalues    EBANDS =    -15269.89245638
  atomic energy  EATOM  =    136002.60505376
  Solvation  Ediel_sol  =         0.00000000
  ---------------------------------------------------
  free energy    TOTEN  =      -372.43996584 eV

  energy without entropy =     -371.37732275  energy(sigma->0) =     -371.90864430


--------------------------------------------------------------------------------------------------------




--------------------------------------- Iteration      1(  11)  ---------------------------------------


    POTLOK:  cpu time    0.0468: real time    0.0469
    SETDIJ:  cpu time    0.0049: real time    0.0049
     EDDAV:  cpu time    2.4057: real time    2.4113
       DOS:  cpu time    0.0007: real time    0.0007
    CHARGE:  cpu time    0.0388: real time    0.0389
    MIXING:  cpu time    0.0021: real time    0.0021
    --------------------------------------------
      LOOP:  cpu time    2.4989: real time    2.5048

 eigenvalue-minimisations  :  1320
 total energy-change (2. order) :-0.9570233E+01  (-0.3535999E+01)
 number of electron     792.0000218 magnetization 
 augmentation part      309.0822168 magnetization 

 Broyden mixing:
  rms(total) = 0.86848E+01    rms(broyden)= 0.86819E+01
  rms(prec ) = 0.10337E+02
  weight for this iteration     100.00

 eigenvalues of (default mixing * dielectric matrix)
  average eigenvalue GAMMA=   0.5266
  2.0077  0.4179  0.4179  0.1178  0.1178  0.0806

 Free energy of the ion-electron system (eV)
  ---------------------------------------------------
  alpha Z        PSCENC =      1820.93486007
  Ewald energy   TEWEN  =    169502.37400194
  -Hartree energ DENC   =   -290975.78501950
  -exchange      EXHF   =         0.00000000
  -V(xc)+E(xc)   XCENC  =      3622.43738371
  PAW double counting   =    130601.44163596  -135584.04101936
  entropy T*S    EENTRO =        -1.34590344
  eigenvalues    EBANDS =    -15370.63119237
  atomic energy  EATOM  =    136002.60505376
  Solvation  Ediel_sol  =         0.00000000
  ---------------------------------------------------
  free energy    TOTEN  =      -382.01019923 eV

  energy without entropy =     -380.66429579  energy(sigma->0) =     -381.33724751


--------------------------------------------------------------------------------------------------------




--------------------------------------- Iteration      1(  12)  ---------------------------------------


    POTLOK:  cpu time    0.0469: real time    0.0470
    SETDIJ:  cpu time    0.0050: real time    0.0050
     EDDAV:  cpu time    2.3377: real time    2.3432
       DOS:  cpu time    0.0008: real time    0.0008
    CHARGE:  cpu time    0.0386: real time    0.0387
    MIXING:  cpu time    0.0022: real time    0.0022
    --------------------------------------------
      LOOP:  cpu time    2.4312: real time    2.4370

 eigenvalue-minimisations  :  1272
 total energy-change (2. order) : 0.2015656E+02  (-0.3338024E+01)
 number of electron     792.0000268 magnetization 
 augmentation part      313.4599273 magnetization 

 Broyden mixing:
  rms(total) = 0.30875E+01    rms(broyden)= 0.30839E+01
  rms(prec ) = 0.35579E+01
  weight for this iteration     100.00

 eigenvalues of (default mixing * dielectric matrix)
  average eigenvalue GAMMA=   0.4992
  2.0429  0.4132  0.4132  0.3122  0.1347  0.0817  0.0961

 Free energy of the ion-electron system (eV)
  ---------------------------------------------------
  alpha Z        PSCENC =      1820.93486007
  Ewald energy   TEWEN  =    169502.37400194
  -Hartree energ DENC   =   -290994.42266656
  -exchange      EXHF   =         0.00000000
  -V(xc)+E(xc)   XCENC  =      3620.45236195
  PAW double counting   =    131878.56331595  -136867.00440229
  entropy T*S    EENTRO =        -0.78592472
  eigenvalues    EBANDS =    -15324.57023784
  atomic energy  EATOM  =    136002.60505376
  Solvation  Ediel_sol  =         0.00000000
  ---------------------------------------------------
  free energy    TOTEN  =      -361.85363776 eV

  energy without entropy =     -361.06771304  energy(sigma->0) =     -361.46067540


--------------------------------------------------------------------------------------------------------




--------------------------------------- Iteration      1(  13)  ---------------------------------------


    POTLOK:  cpu time    0.0465: real time    0.0466
    SETDIJ:  cpu time    0.0047: real time    0.0047
     EDDAV:  cpu time    2.4064: real time    2.4146
       DOS:  cpu time    0.0008: real time    0.0007
    CHARGE:  cpu time    0.0393: real time    0.0394
    MIXING:  cpu time    0.0026: real time    0.0026
    --------------------------------------------
      LOOP:  cpu time    2.5002: real time    2.5086

 eigenvalue-minimisations  :  1304
 total energy-change (2. order) : 0.2207365E+01  (-0.1596789E+01)
 number of electron     792.0000238 magnetization 
 augmentation part      312.5098526 magnetization 

 Broyden mixing:
  rms(total) = 0.38294E+01    rms(broyden)= 0.38269E+01
  rms(prec ) = 0.44160E+01
  weight for this iteration     100.00

 eigenvalues of (default mixing * dielectric matrix)
  average eigenvalue GAMMA=   0.4888
  2.0468  0.5531  0.4332  0.4332  0.1447  0.1087  0.1087  0.0822

 Free energy of the ion-electron system (eV)
  ---------------------------------------------------
  alpha Z        PSCENC =      1820.93486007
  Ewald energy   TEWEN  =    169502.37400194
  -Hartree energ DENC   =   -290996.45161568
  -exchange      EXHF   =         0.00000000
  -V(xc)+E(xc)   XCENC  =      3621.10321040
  PAW double counting   =    132065.45111409  -137058.16499054
  entropy T*S    EENTRO =        -1.21981509
  eigenvalues    EBANDS =    -15316.27809208
  atomic energy  EATOM  =    136002.60505376
  Solvation  Ediel_sol  =         0.00000000
  ---------------------------------------------------
  free energy    TOTEN  =      -359.64627313 eV

  energy without entropy =     -358.42645804  energy(sigma->0) =     -359.03636558


--------------------------------------------------------------------------------------------------------




--------------------------------------- Iteration      1(  14)  ---------------------------------------


    POTLOK:  cpu time    0.0480: real time    0.0504
    SETDIJ:  cpu time    0.0044: real time    0.0062
     EDDAV:  cpu time    2.2989: real time    2.3044
       DOS:  cpu time    0.0006: real time    0.0006
    CHARGE:  cpu time    0.0390: real time    0.0391
    MIXING:  cpu time    0.0024: real time    0.0024
    --------------------------------------------
      LOOP:  cpu time    2.3933: real time    2.4031

 eigenvalue-minimisations  :  1248
 total energy-change (2. order) : 0.1414761E+01  (-0.1920717E+01)
 number of electron     792.0000257 magnetization 
 augmentation part      312.8572747 magnetization 

 Broyden mixing:
  rms(total) = 0.25055E+01    rms(broyden)= 0.25032E+01
  rms(prec ) = 0.29329E+01
  weight for this iteration     100.00

 eigenvalues of (default mixing * dielectric matrix)
  average eigenvalue GAMMA=   0.4505
  2.0253  0.5061  0.4518  0.4518  0.2062  0.1159  0.1159  0.1011  0.0800

 Free energy of the ion-electron system (eV)
  ---------------------------------------------------
  alpha Z        PSCENC =      1820.93486007
  Ewald energy   TEWEN  =    169502.37400194
  -Hartree energ DENC   =   -291030.84270584
  -exchange      EXHF   =         0.00000000
  -V(xc)+E(xc)   XCENC  =      3621.08328111
  PAW double counting   =    132150.74182125  -137143.95877398
  entropy T*S    EENTRO =        -0.98103907
  eigenvalues    EBANDS =    -15280.18801108
  atomic energy  EATOM  =    136002.60505376
  Solvation  Ediel_sol  =         0.00000000
  ---------------------------------------------------
  free energy    TOTEN  =      -358.23151185 eV

  energy without entropy =     -357.25047278  energy(sigma->0) =     -357.74099232


--------------------------------------------------------------------------------------------------------




--------------------------------------- Iteration      1(  15)  ---------------------------------------


    POTLOK:  cpu time    0.0473: real time    0.0474
    SETDIJ:  cpu time    0.0048: real time    0.0048
     EDDAV:  cpu time    2.3928: real time    2.3986
       DOS:  cpu time    0.0005: real time    0.0005
    CHARGE:  cpu time    0.0386: real time    0.0386
    MIXING:  cpu time    0.0029: real time    0.0029
    --------------------------------------------
      LOOP:  cpu time    2.4869: real time    2.4929

 eigenvalue-minimisations  :  1312
 total energy-change (2. order) : 0.2215958E+01  (-0.3471427E+00)
 number of electron     792.0000263 magnetization 
 augmentation part      312.9046944 magnetization 

 Broyden mixing:
  rms(total) = 0.17729E+01    rms(broyden)= 0.17719E+01
  rms(prec ) = 0.20339E+01
  weight for this iteration     100.00

 eigenvalues of (default mixing * dielectric matrix)
  average eigenvalue GAMMA=   0.4670
  1.9911  0.6356  0.6356  0.4065  0.4065  0.1624  0.1383  0.1065  0.1065  0.0810

 Free energy of the ion-electron system (eV)
  ---------------------------------------------------
  alpha Z        PSCENC =      1820.93486007
  Ewald energy   TEWEN  =    169502.37400194
  -Hartree energ DENC   =   -291028.15715463
  -exchange      EXHF   =         0.00000000
  -V(xc)+E(xc)   XCENC  =      3621.41945005
  PAW double counting   =    132020.69057108  -137013.53216302
  entropy T*S    EENTRO =        -0.93507603
  eigenvalues    EBANDS =    -15281.41509664
  atomic energy  EATOM  =    136002.60505376
  Solvation  Ediel_sol  =         0.00000000
  ---------------------------------------------------
  free energy    TOTEN  =      -356.01555343 eV

  energy without entropy =     -355.08047740  energy(sigma->0) =     -355.54801542


--------------------------------------------------------------------------------------------------------




--------------------------------------- Iteration      1(  16)  ---------------------------------------


    POTLOK:  cpu time    0.0470: real time    0.0471
    SETDIJ:  cpu time    0.0051: real time    0.0051
     EDDAV:  cpu time    2.3086: real time    2.3141
       DOS:  cpu time    0.0006: real time    0.0006
    CHARGE:  cpu time    0.0390: real time    0.0391
    MIXING:  cpu time    0.0027: real time    0.0027
    --------------------------------------------
      LOOP:  cpu time    2.4030: real time    2.4088

 eigenvalue-minimisations  :  1248
 total energy-change (2. order) : 0.7678795E+00  (-0.1257129E+00)
 number of electron     792.0000258 magnetization 
 augmentation part      312.7322673 magnetization 

 Broyden mixing:
  rms(total) = 0.15395E+01    rms(broyden)= 0.15389E+01
  rms(prec ) = 0.17526E+01
  weight for this iteration     100.00

 eigenvalues of (default mixing * dielectric matrix)
  average eigenvalue GAMMA=   0.4625
  1.9557  0.7654  0.7654  0.4069  0.4069  0.2081  0.1539  0.1284  0.1077  0.1077
  0.0810

 Free energy of the ion-electron system (eV)
  ---------------------------------------------------
  alpha Z        PSCENC =      1820.93486007
  Ewald energy   TEWEN  =    169502.37400194
  -Hartree energ DENC   =   -291030.29006102
  -exchange      EXHF   =         0.00000000
  -V(xc)+E(xc)   XCENC  =      3621.71057916
  PAW double counting   =    131789.93586692  -136780.07128500
  entropy T*S    EENTRO =        -0.94055704
  eigenvalues    EBANDS =    -15281.50613267
  atomic energy  EATOM  =    136002.60505376
  Solvation  Ediel_sol  =         0.00000000
  ---------------------------------------------------
  free energy    TOTEN  =      -355.24767388 eV

  energy without entropy =     -354.30711684  energy(sigma->0) =     -354.77739536


--------------------------------------------------------------------------------------------------------




--------------------------------------- Iteration      1(  17)  ---------------------------------------


    POTLOK:  cpu time    0.0475: real time    0.0478
    SETDIJ:  cpu time    0.0050: real time    0.0050
     EDDAV:  cpu time    2.4035: real time    2.4092
       DOS:  cpu time    0.0008: real time    0.0008
    CHARGE:  cpu time    0.0390: real time    0.0391
    MIXING:  cpu time    0.0027: real time    0.0027
    --------------------------------------------
      LOOP:  cpu time    2.4985: real time    2.5046

 eigenvalue-minimisations  :  1312
 total energy-change (2. order) : 0.6023867E+00  (-0.8924865E-01)
 number of electron     792.0000260 magnetization 
 augmentation part      312.5295568 magnetization 

 Broyden mixing:
  rms(total) = 0.12890E+01    rms(broyden)= 0.12882E+01
  rms(prec ) = 0.14654E+01
  weight for this iteration     100.00

 eigenvalues of (default mixing * dielectric matrix)
  average eigenvalue GAMMA=   0.4725
  1.9647  0.8732  0.8732  0.4141  0.4141  0.3975  0.1639  0.0810  0.1062  0.1062
  0.1378  0.1378

 Free energy of the ion-electron system (eV)
  ---------------------------------------------------
  alpha Z        PSCENC =      1820.93486007
  Ewald energy   TEWEN  =    169502.37400194
  -Hartree energ DENC   =   -291037.60737655
  -exchange      EXHF   =         0.00000000
  -V(xc)+E(xc)   XCENC  =      3621.91201471
  PAW double counting   =    131608.91230428  -136596.75174577
  entropy T*S    EENTRO =        -0.98152040
  eigenvalues    EBANDS =    -15276.04287925
  atomic energy  EATOM  =    136002.60505376
  Solvation  Ediel_sol  =         0.00000000
  ---------------------------------------------------
  free energy    TOTEN  =      -354.64528721 eV

  energy without entropy =     -353.66376680  energy(sigma->0) =     -354.15452701


--------------------------------------------------------------------------------------------------------




--------------------------------------- Iteration      1(  18)  ---------------------------------------


    POTLOK:  cpu time    0.0471: real time    0.0472
    SETDIJ:  cpu time    0.0049: real time    0.0049
     EDDAV:  cpu time    2.3935: real time    2.3992
       DOS:  cpu time    0.0006: real time    0.0006
    CHARGE:  cpu time    0.0390: real time    0.0391
    MIXING:  cpu time    0.0028: real time    0.0028
    --------------------------------------------
      LOOP:  cpu time    2.4878: real time    2.4938

 eigenvalue-minimisations  :  1304
 total energy-change (2. order) : 0.4343293E+00  (-0.7183923E-01)
 number of electron     792.0000256 magnetization 
 augmentation part      312.2052042 magnetization 

 Broyden mixing:
  rms(total) = 0.98360E+00    rms(broyden)= 0.98285E+00
  rms(prec ) = 0.11111E+01
  weight for this iteration     100.00

 eigenvalues of (default mixing * dielectric matrix)
  average eigenvalue GAMMA=   0.4798
  1.9686  0.9964  0.9964  0.4345  0.4345  0.4130  0.2832  0.1493  0.1493  0.0810
  0.1068  0.1068  0.1175

 Free energy of the ion-electron system (eV)
  ---------------------------------------------------
  alpha Z        PSCENC =      1820.93486007
  Ewald energy   TEWEN  =    169502.37400194
  -Hartree energ DENC   =   -291055.02158322
  -exchange      EXHF   =         0.00000000
  -V(xc)+E(xc)   XCENC  =      3621.99821069
  PAW double counting   =    131457.90653479  -136442.98233639
  entropy T*S    EENTRO =        -1.00624570
  eigenvalues    EBANDS =    -15261.01945380
  atomic energy  EATOM  =    136002.60505376
  Solvation  Ediel_sol  =         0.00000000
  ---------------------------------------------------
  free energy    TOTEN  =      -354.21095786 eV

  energy without entropy =     -353.20471216  energy(sigma->0) =     -353.70783501


--------------------------------------------------------------------------------------------------------




--------------------------------------- Iteration      1(  19)  ---------------------------------------


    POTLOK:  cpu time    0.0474: real time    0.0475
    SETDIJ:  cpu time    0.0049: real time    0.0049
     EDDAV:  cpu time    2.4151: real time    2.4209
       DOS:  cpu time    0.0005: real time    0.0005
    CHARGE:  cpu time    0.0390: real time    0.0391
    MIXING:  cpu time    0.0029: real time    0.0029
    --------------------------------------------
      LOOP:  cpu time    2.5099: real time    2.5159

 eigenvalue-minimisations  :  1320
 total energy-change (2. order) : 0.1193730E+00  (-0.3228185E-01)
 number of electron     792.0000252 magnetization 
 augmentation part      312.1826586 magnetization 

 Broyden mixing:
  rms(total) = 0.87994E+00    rms(broyden)= 0.87955E+00
  rms(prec ) = 0.99515E+00
  weight for this iteration     100.00

 eigenvalues of (default mixing * dielectric matrix)
  average eigenvalue GAMMA=   0.5210
  2.0040  1.2917  1.2917  0.5013  0.5013  0.4174  0.4174  0.1618  0.1588  0.0810
  0.1066  0.1066  0.1312  0.1226

 Free energy of the ion-electron system (eV)
  ---------------------------------------------------
  alpha Z        PSCENC =      1820.93486007
  Ewald energy   TEWEN  =    169502.37400194
  -Hartree energ DENC   =   -291060.56831828
  -exchange      EXHF   =         0.00000000
  -V(xc)+E(xc)   XCENC  =      3621.98556501
  PAW double counting   =    131349.86938179  -136332.93149791
  entropy T*S    EENTRO =        -1.04508421
  eigenvalues    EBANDS =    -15257.31554702
  atomic energy  EATOM  =    136002.60505376
  Solvation  Ediel_sol  =         0.00000000
  ---------------------------------------------------
  free energy    TOTEN  =      -354.09158486 eV

  energy without entropy =     -353.04650065  energy(sigma->0) =     -353.56904276


--------------------------------------------------------------------------------------------------------




--------------------------------------- Iteration      1(  20)  ---------------------------------------


    POTLOK:  cpu time    0.0475: real time    0.0476
    SETDIJ:  cpu time    0.0049: real time    0.0049
     EDDAV:  cpu time    2.3786: real time    2.3843
       DOS:  cpu time    0.0006: real time    0.0006
    CHARGE:  cpu time    0.0390: real time    0.0391
    MIXING:  cpu time    0.0030: real time    0.0030
    --------------------------------------------
      LOOP:  cpu time    2.4737: real time    2.4795

 eigenvalue-minimisations  :  1296
 total energy-change (2. order) : 0.1903681E+00  (-0.2677248E-01)
 number of electron     792.0000253 magnetization 
 augmentation part      312.3138502 magnetization 

 Broyden mixing:
  rms(total) = 0.66997E+00    rms(broyden)= 0.66948E+00
  rms(prec ) = 0.76539E+00
  weight for this iteration     100.00

 eigenvalues of (default mixing * dielectric matrix)
  average eigenvalue GAMMA=   0.5457
  2.0087  1.5040  1.5040  0.5691  0.5691  0.4080  0.4080  0.3625  0.1618  0.0810
  0.1066  0.1066  0.1396  0.1396  0.1172

 Free energy of the ion-electron system (eV)
  ---------------------------------------------------
  alpha Z        PSCENC =      1820.93486007
  Ewald energy   TEWEN  =    169502.37400194
  -Hartree energ DENC   =   -291068.34540858
  -exchange      EXHF   =         0.00000000
  -V(xc)+E(xc)   XCENC  =      3621.87754211
  PAW double counting   =    131132.82137754  -136111.40232639
  entropy T*S    EENTRO =        -1.03929861
  eigenvalues    EBANDS =    -15253.72701860
  atomic energy  EATOM  =    136002.60505376
  Solvation  Ediel_sol  =         0.00000000
  ---------------------------------------------------
  free energy    TOTEN  =      -353.90121677 eV

  energy without entropy =     -352.86191816  energy(sigma->0) =     -353.38156747


--------------------------------------------------------------------------------------------------------




--------------------------------------- Iteration      1(  21)  ---------------------------------------


    POTLOK:  cpu time    0.0477: real time    0.0478
    SETDIJ:  cpu time    0.0049: real time    0.0049
     EDDAV:  cpu time    2.3792: real time    2.3850
       DOS:  cpu time    0.0014: real time    0.0014
    CHARGE:  cpu time    0.0445: real time    0.0446
    MIXING:  cpu time    0.0032: real time    0.0032
    --------------------------------------------
      LOOP:  cpu time    2.4808: real time    2.4869

 eigenvalue-minimisations  :  1296
 total energy-change (2. order) :-0.2320716E-01  (-0.3514188E-01)
 number of electron     792.0000252 magnetization 
 augmentation part      312.2914032 magnetization 

 Broyden mixing:
  rms(total) = 0.70638E+00    rms(broyden)= 0.70557E+00
  rms(prec ) = 0.80293E+00
  weight for this iteration     100.00

 eigenvalues of (default mixing * dielectric matrix)
  average eigenvalue GAMMA=   0.5688
  2.0158  1.6615  1.6615  0.7652  0.7652  0.4199  0.4199  0.3963  0.0810  0.1066
  0.1066  0.1657  0.1457  0.1457  0.1290  0.1162

 Free energy of the ion-electron system (eV)
  ---------------------------------------------------
  alpha Z        PSCENC =      1820.93486007
  Ewald energy   TEWEN  =    169502.37400194
  -Hartree energ DENC   =   -291081.36975755
  -exchange      EXHF   =         0.00000000
  -V(xc)+E(xc)   XCENC  =      3621.82776778
  PAW double counting   =    130916.62270823  -135891.32668557
  entropy T*S    EENTRO =        -1.06593409
  eigenvalues    EBANDS =    -15244.52643849
  atomic energy  EATOM  =    136002.60505376
  Solvation  Ediel_sol  =         0.00000000
  ---------------------------------------------------
  free energy    TOTEN  =      -353.92442393 eV

  energy without entropy =     -352.85848984  energy(sigma->0) =     -353.39145689


--------------------------------------------------------------------------------------------------------




--------------------------------------- Iteration      1(  22)  ---------------------------------------


    POTLOK:  cpu time    0.0475: real time    0.0476
[...]
    FORCOR:  cpu time    0.0599: real time    0.0602
    FORHAR:  cpu time    0.0251: real time    0.0252
    MIXING:  cpu time    0.0058: real time    0.0059
    OFIELD:  cpu time    0.0001: real time    0.0001

  FORCE on cell =-STRESS in cart. coord.  units (eV):
  Direction    XX          YY          ZZ          XY          YZ          ZX
  --------------------------------------------------------------------------------------
  Alpha Z  1820.93486  1820.93486  1820.93486
  Ewald  217285.80054218506.09468************  -541.20267    44.91627  -700.57851
  Hartree254286.89295255507.03473************  -467.30460    32.87251  -468.52291
  E(xc)   -5026.15903 -5026.74341 -5029.84844    -0.09277     0.01043    -0.96443
  Local  ************************472021.76280  1007.16593   -76.47824  1134.52608
  n-local  -679.52718  -693.53982  -694.03342     0.44722    -0.42550    -4.82872
  augment  5780.46659  5803.77692  5796.87579    -0.03018     0.15048    16.91036
  Kinetic 10961.13498 10983.20945 10986.12372     1.34902    -0.13847    37.92057
  Fock        0.00000     0.00000     0.00000     0.00000     0.00000     0.00000
  -------------------------------------------------------------------------------------
  Total     -33.76902   -23.95526   -27.21283     0.33196     0.90749    14.46243
  in kB     -26.48453   -18.78775   -21.34261     0.26035     0.71173    11.34266
  external pressure =      -22.20 kB  Pullay stress =        0.00 kB


 VOLUME and BASIS-vectors are now :
 -----------------------------------------------------------------------------
  energy-cutoff  :      450.00
  volume of cell :     2042.85
      direct lattice vectors                 reciprocal lattice vectors
    10.403353751 -4.789205000  0.000000000     0.096122849  0.000000000  0.000000000
     0.000000000  9.578410000  0.000000000     0.048061424  0.104401461  0.000000000
     0.000000000  0.000000000 20.500762856     0.000000000  0.000000000  0.048778673

  length of vectors
    11.452783670  9.578410000 20.500762856     0.096122849  0.114932874  0.048778673


 FORCES acting on ions
    electron-ion (+dipol)            ewald-force                    non-local-force                 convergence-correction
 -----------------------------------------------------------------------------------------------
   -.307E+03 0.478E+03 -.239E+04   0.307E+03 -.480E+03 0.239E+04   -.454E+00 0.159E+01 -.187E+01   0.194E-01 -.146E-01 -.684E-01
   -.248E+03 0.421E+03 0.468E+03   0.248E+03 -.421E+03 -.466E+03   0.726E-01 0.545E+00 -.130E+01   0.219E-01 0.139E-01 -.873E-01
   -.425E+03 0.393E+03 0.358E+04   0.426E+03 -.390E+03 -.358E+04   -.684E+00 -.181E+01 -.867E+00   -.512E-01 0.827E-01 -.591E-01
   -.248E+03 0.637E+03 -.462E+04   0.242E+03 -.633E+03 0.461E+04   0.576E+01 -.461E+01 0.258E+01   -.267E-02 -.148E-01 -.213E-02
   -.233E+03 0.466E+03 -.441E+03   0.233E+03 -.466E+03 0.442E+03   0.592E+00 0.727E+00 -.112E+01   -.170E-03 -.170E-01 -.521E-01
   -.234E+03 0.389E+03 0.246E+04   0.235E+03 -.391E+03 -.247E+04   -.663E+00 0.118E+01 0.153E+01   -.268E-01 -.157E-01 0.312E-02
   -.861E+02 -.289E+03 0.464E+04   0.777E+02 0.288E+03 -.463E+04   0.726E+01 0.658E+00 -.903E+01   0.133E-01 0.336E-02 0.125E-01
   0.226E+03 0.484E+03 -.449E+04   -.222E+03 -.473E+03 0.448E+04   -.285E+01 -.995E+01 0.899E+01   0.116E-01 0.143E-02 0.537E-02
   -.199E+03 0.526E+03 -.320E+04   0.199E+03 -.529E+03 0.321E+04   -.189E+00 0.304E+01 -.244E+01   0.270E-02 0.151E-01 -.563E-01
   -.135E+03 0.230E+03 -.423E+04   0.134E+03 -.233E+03 0.423E+04   0.123E+00 0.235E+01 -.166E+01   -.191E-01 -.255E-02 -.291E-01
   -.302E+03 0.380E+03 -.149E+04   0.301E+03 -.380E+03 0.149E+04   0.619E+00 0.456E+00 -.178E+01   -.149E-01 0.101E-01 -.543E-01
   -.169E+03 0.521E+03 0.143E+04   0.169E+03 -.522E+03 -.143E+04   0.465E+00 0.886E+00 -.301E+00   -.107E-02 0.917E-02 -.143E-01
   -.310E+03 0.614E+03 0.409E+04   0.311E+03 -.612E+03 -.409E+04   -.468E+00 -.191E+01 -.181E-01   0.393E-01 -.399E-01 0.893E-02
   0.492E+03 -.192E+01 -.314E+04   -.495E+03 0.192E+01 0.314E+04   0.279E+01 -.257E-02 -.304E+01   -.316E-01 0.121E-01 -.485E-01
   0.367E+03 -.149E+02 -.346E+03   -.369E+03 0.150E+02 0.346E+03   0.177E+01 0.558E-02 -.221E+00   -.624E-02 0.309E-03 -.823E-01
   0.459E+03 -.707E+02 0.254E+04   -.462E+03 0.706E+02 -.254E+04   0.242E+01 0.984E-01 0.264E+00   0.531E-01 0.309E-03 -.548E-01
   0.210E+03 -.425E+02 0.496E+04   -.207E+03 0.424E+02 -.495E+04   -.369E+01 0.515E-01 -.135E+02   0.746E-01 0.486E-03 0.464E-01
   0.251E+03 -.476E+02 0.431E+04   -.251E+03 0.488E+02 -.432E+04   0.257E+00 -.988E+00 0.419E+01   -.159E-01 0.121E-02 0.656E-02
   0.557E+03 0.399E+01 -.147E+04   -.560E+03 -.401E+01 0.148E+04   0.190E+01 -.217E-01 -.989E+00   0.124E-01 0.439E-02 -.443E-01
   0.361E+03 0.231E+01 0.151E+04   -.362E+03 -.230E+01 -.151E+04   0.144E+01 0.290E-01 -.242E+00   0.768E-02 -.217E-02 -.335E-01
   0.381E+03 0.134E+02 0.586E+03   -.382E+03 -.134E+02 -.586E+03   0.161E+01 -.509E-02 -.252E+00   -.228E-01 0.357E-03 -.665E-01
   0.587E+03 0.106E+03 0.343E+04   -.590E+03 -.107E+03 -.343E+04   0.299E+01 0.975E+00 0.106E+01   -.376E-01 0.495E-02 0.128E-01
   0.442E+03 0.164E+03 0.503E+04   -.439E+03 -.165E+03 -.501E+04   -.439E+01 0.656E+00 -.142E+02   0.114E-01 -.228E-02 0.372E-02
   0.502E+03 0.645E+00 -.250E+04   -.505E+03 -.623E+00 0.250E+04   0.226E+01 -.548E-03 -.334E+01   0.918E-02 -.176E-01 -.441E-01
   -.248E+03 -.639E+03 -.462E+04   0.242E+03 0.634E+03 0.461E+04   0.574E+01 0.460E+01 0.258E+01   -.122E-01 0.250E-01 -.365E-02
   -.304E+03 -.484E+03 -.239E+04   0.305E+03 0.485E+03 0.239E+04   -.504E+00 -.158E+01 -.181E+01   0.165E-01 0.156E-01 -.700E-01
   -.231E+03 -.433E+03 0.481E+03   0.231E+03 0.434E+03 -.479E+03   0.438E-01 -.579E+00 -.134E+01   0.244E-01 -.107E-01 -.871E-01
   -.382E+03 -.380E+03 0.358E+04   0.383E+03 0.378E+03 -.357E+04   -.830E+00 0.179E+01 -.765E+00   -.508E-01 -.806E-01 -.528E-01
   -.243E+03 -.473E+03 -.433E+03   0.242E+03 0.474E+03 0.434E+03   0.461E+00 -.786E+00 -.102E+01   -.126E-02 0.165E-01 -.409E-01
   -.349E+03 -.488E+03 0.261E+04   0.350E+03 0.489E+03 -.262E+04   -.463E+00 -.168E+01 0.304E+01   -.232E-01 0.753E-02 -.105E-01
   0.226E+03 -.483E+03 -.449E+04   -.222E+03 0.473E+03 0.448E+04   -.282E+01 0.997E+01 0.901E+01   0.171E-01 0.226E-02 0.201E-02
   -.201E+03 -.525E+03 -.320E+04   0.201E+03 0.529E+03 0.321E+04   -.250E+00 -.308E+01 -.240E+01   0.910E-02 0.156E-02 -.503E-01
   -.134E+03 -.228E+03 -.423E+04   0.133E+03 0.231E+03 0.423E+04   0.126E+00 -.231E+01 -.168E+01   -.172E-01 -.283E-01 -.321E-01
   -.299E+03 -.367E+03 -.150E+04   0.298E+03 0.368E+03 0.150E+04   0.654E+00 -.419E+00 -.178E+01   -.616E-02 -.132E-01 -.707E-01
   -.192E+03 -.439E+03 0.135E+04   0.192E+03 0.440E+03 -.135E+04   0.422E+00 -.655E+00 -.153E+01   -.362E-03 0.355E-02 -.137E-01
   -.422E+03 -.495E+03 0.406E+04   0.424E+03 0.492E+03 -.406E+04   -.170E+01 0.224E+01 -.118E+00   0.449E-01 0.490E-01 0.148E-01
   0.187E+03 -.749E+02 -.183E+04   -.189E+03 0.739E+02 0.183E+04   0.351E+01 0.149E+01 -.375E+01   -.140E-01 0.147E-01 -.264E-02
   0.708E+02 -.192E+03 -.880E+03   -.727E+02 0.194E+03 0.879E+03   0.191E+01 -.245E+01 0.421E+00   -.626E-02 0.677E-02 -.258E-01
   0.995E+02 -.147E+03 0.175E+03   -.101E+03 0.149E+03 -.176E+03   0.146E+01 -.220E+01 0.930E+00   0.303E-02 -.352E-02 -.235E-01
   0.934E+02 -.125E+03 0.123E+04   -.948E+02 0.127E+03 -.123E+04   0.172E+01 -.228E+01 -.738E+00   0.350E-01 -.399E-01 -.285E-01
   0.588E+02 -.168E+03 0.910E+03   -.602E+02 0.170E+03 -.911E+03   0.153E+01 -.219E+01 0.103E+01   -.351E-02 0.258E-01 -.223E-01
   -.718E+02 -.178E+03 0.185E+04   0.726E+02 0.180E+03 -.186E+04   -.142E+01 -.285E+01 0.438E+01   -.142E-01 0.999E-02 0.403E-02
   0.213E+03 -.446E+02 -.126E+04   -.216E+03 0.442E+02 0.126E+04   0.330E+01 0.445E+00 0.687E+00   0.121E-01 -.120E-01 -.215E-01
   0.958E+02 -.152E+03 -.200E+03   -.977E+02 0.154E+03 0.199E+03   0.189E+01 -.227E+01 -.307E-01   -.103E-02 0.108E-02 -.641E-02
   0.926E+02 -.124E+03 -.554E+03   -.942E+02 0.126E+03 0.554E+03   0.162E+01 -.252E+01 0.333E+00   -.592E-02 -.422E-02 -.257E-01
   0.107E+03 -.136E+03 0.529E+03   -.108E+03 0.138E+03 -.530E+03   0.137E+01 -.205E+01 0.106E+01   -.511E-02 -.106E-02 -.148E-01
   0.138E+03 -.168E+03 0.145E+04   -.139E+03 0.170E+03 -.145E+04   0.209E+01 -.244E+01 -.112E+01   0.871E-02 -.539E-02 0.177E-01
   0.159E+03 0.555E+02 -.169E+04   -.161E+03 -.566E+02 0.170E+04   0.304E+01 0.917E+00 -.347E+01   -.384E-03 -.198E-02 -.107E-01
   -.672E+02 0.237E+02 0.167E+04   0.675E+02 -.237E+02 -.167E+04   -.151E+01 -.925E-01 0.397E+01   -.438E-01 0.624E-03 0.842E-02
   -.335E+03 -.460E+00 -.170E+04   0.340E+03 0.447E+00 0.170E+04   -.651E+01 0.561E-02 -.233E+01   0.128E-01 0.786E-03 -.457E-02
   -.120E+03 -.110E+01 -.760E+03   0.121E+03 0.111E+01 0.762E+03   -.103E+01 0.688E-02 -.163E+01   0.125E-01 0.135E-02 -.214E-01
   -.124E+03 0.137E+01 0.391E+03   0.126E+03 -.136E+01 -.389E+03   -.174E+01 -.344E-01 -.171E+01   0.567E-03 0.280E-02 -.528E-01
   -.116E+03 -.900E+01 0.363E+02   0.117E+03 0.883E+01 -.351E+02   -.159E+01 0.224E+00 -.142E+01   -.130E-03 -.373E-02 -.209E-01
   -.909E+02 -.141E+03 0.124E+04   0.920E+02 0.142E+03 -.124E+04   -.109E+01 -.209E+01 0.102E+01   0.608E-02 0.411E-02 0.145E-01
   -.107E+03 -.654E+00 -.106E+04   0.108E+03 0.624E+00 0.106E+04   -.107E+01 0.322E-01 -.864E+00   -.137E-01 0.339E-02 -.165E-01
   -.276E+03 0.327E-01 -.182E+04   0.281E+03 -.473E-01 0.182E+04   -.714E+01 0.136E-01 -.233E+01   0.631E-02 0.432E-02 -.128E-01
   -.297E+03 0.878E+00 -.149E+04   0.302E+03 -.882E+00 0.150E+04   -.628E+01 0.266E-01 -.299E+01   -.560E-02 -.704E-02 -.125E-01
   -.103E+03 0.515E+01 -.416E+03   0.105E+03 -.518E+01 0.417E+03   -.122E+01 0.198E-02 -.136E+01   0.500E-02 0.381E-02 -.211E-01
   -.115E+03 0.131E+02 0.689E+03   0.117E+03 -.130E+02 -.687E+03   -.144E+01 -.102E+00 -.205E+01   -.472E-02 0.655E-02 -.646E-02
   -.156E+03 0.350E+01 0.180E+04   0.156E+03 -.341E+01 -.181E+04   -.178E+01 -.131E+00 0.389E+01   0.339E-02 0.346E-02 0.154E-02
   0.924E+02 0.139E+03 0.156E+03   -.939E+02 -.141E+03 -.157E+03   0.141E+01 0.201E+01 0.810E+00   -.190E-02 -.275E-02 -.277E-01
   0.577E+02 0.113E+03 0.122E+04   -.593E+02 -.115E+03 -.122E+04   0.195E+01 0.230E+01 -.657E+00   0.314E-01 0.339E-01 -.322E-01
   0.187E+03 0.747E+02 -.183E+04   -.189E+03 -.736E+02 0.183E+04   0.350E+01 -.150E+01 -.376E+01   -.107E-01 -.343E-02 0.246E-02
   0.710E+02 0.191E+03 -.883E+03   -.729E+02 -.193E+03 0.883E+03   0.192E+01 0.248E+01 0.519E+00   -.455E-02 -.455E-02 -.292E-01
   0.753E+02 0.163E+03 0.903E+03   -.767E+02 -.165E+03 -.904E+03   0.156E+01 0.230E+01 0.668E+00   -.866E-04 -.279E-01 -.201E-01
   0.126E+03 0.156E+03 0.184E+04   -.128E+03 -.159E+03 -.184E+04   0.230E+01 0.440E+01 0.326E+01   -.242E-01 -.911E-02 0.102E-01
   0.214E+03 0.452E+02 -.126E+04   -.217E+03 -.449E+02 0.126E+04   0.327E+01 -.453E+00 0.652E+00   0.682E-02 0.113E-01 -.224E-01
   0.993E+02 0.153E+03 -.198E+03   -.101E+03 -.155E+03 0.198E+03   0.176E+01 0.216E+01 0.269E-01   -.288E-04 -.290E-02 -.114E-01
   0.906E+02 0.125E+03 -.551E+03   -.921E+02 -.127E+03 0.551E+03   0.165E+01 0.252E+01 0.253E+00   -.474E-02 0.460E-02 -.136E-01
   0.954E+02 0.156E+03 0.559E+03   -.971E+02 -.158E+03 -.560E+03   0.167E+01 0.212E+01 0.786E+00   -.923E-02 0.472E-02 -.130E-01
   0.198E+03 0.365E+03 0.155E+04   -.201E+03 -.371E+03 -.155E+04   0.327E+01 0.664E+01 0.107E+01   -.734E-03 -.580E-02 0.615E-02
   0.159E+03 -.554E+02 -.169E+04   -.161E+03 0.566E+02 0.170E+04   0.305E+01 -.920E+00 -.345E+01   0.912E-02 -.310E-02 -.126E-01
 -----------------------------------------------------------------------------------------------
   -.368E+02 -.499E+01 0.449E+02   0.540E-12 0.154E-11 0.227E-12   0.368E+02 0.497E+01 -.433E+02   0.257E-01 0.271E-01 -.158E+01
 
 
 POSITION                                       TOTAL-FORCE (eV/Angst)
 -----------------------------------------------------------------------------------
      6.03859     -2.06748      7.16328        -0.178355     -0.029652      0.191011
      7.93319     -2.06748      4.66016         0.197833      0.107463      0.069580
      9.82779     -2.06748      2.15705         0.592907      0.463171      0.608052
      4.14400      7.51093      9.66639        -0.315550      0.252837     -1.165241
      0.36609      7.51093      5.49453        -0.012521      0.041095      0.135666
      2.26069      7.51093      2.99142         0.210831      0.102804     -0.272923
      4.15528      7.51093      0.48830        -1.128198     -0.553464      1.951919
      6.98025      2.72172     10.50076         0.898008      0.945765     -1.936011
      8.87485      2.72172      7.99765        -0.050134     -0.262169      0.319805
      1.30774      2.72172      8.83202        -0.248509     -0.647838     -0.531349
      3.20234      2.72172      6.32891        -0.178533      0.009125      0.179482
      5.09694      2.72172      3.82579         0.049629      0.220701     -0.194057
      6.99153      2.72172      1.32268         0.421066      0.262186      0.731486
      2.39650     -0.80215      8.34372        -0.309522      0.013805      0.176197
      4.29109     -0.80215      5.84060         0.203570      0.019902      0.173195
      6.18569     -0.80215      3.33749        -0.010212      0.008416     -0.283797
      8.08029     -0.80215      0.83437        -0.339479     -0.023427      1.723301
      0.51318      8.77626      1.66874         0.278697      0.211173     -0.711430
      7.12734      3.98706      6.67497        -0.222187     -0.034877      0.334669
      9.02194      3.98706      4.17186         0.111982      0.038908      0.116553
      1.45484      3.98706      5.00623         0.087036     -0.009386      0.131467
      3.34944      3.98706      2.50311         0.023641     -0.064024     -0.519461
      5.24403      3.98706      0.00000        -0.394643      0.045497      1.950449
      9.96360     -0.80215      7.50934        -0.090259      0.003159      0.519867
      4.14400      0.46319      9.66639        -0.311715     -0.257360     -1.156249
      6.03859      0.46319      7.16328        -0.221543      0.029411      0.189066
      7.93319      0.46319      4.66016         0.165483     -0.093402      0.048293
      9.82779      0.46319      2.15705         0.518390     -0.461850      0.618267
      0.36609      0.46319      5.49453        -0.023637     -0.073773      0.042986
      2.26069      0.46319      2.99142         0.121252     -0.034810     -0.569707
      6.98025      5.25240     10.50076         0.914456     -0.956816     -1.945736
      8.87485      5.25240      7.99765        -0.062967      0.259891      0.330020
      1.30774      5.25240      8.83202        -0.247530      0.649902     -0.538054
      3.20234      5.25240      6.32891        -0.184059     -0.036682      0.210597
      5.09694      5.25240      3.82579         0.050355     -0.088283      0.059244
      6.99153      5.25240      1.32268         0.494317     -0.199954      0.660041
      1.91849      0.80909      9.85483         1.067043      0.489578      0.018845
      3.81309      0.80909      7.35171         0.033622     -0.254507     -0.011638
      5.70769      0.80909      4.84860        -0.050877     -0.110574     -0.115751
      7.60228      0.80909      2.34548         0.336560     -0.276134     -1.320856
      0.03518      0.80909      3.17986         0.111740     -0.137968     -0.264212
      1.92978      0.80909      0.67674        -0.690473     -0.655028      1.341350
      6.64934      5.59829      8.18608         0.100028      0.077795      0.749358
      8.54394      5.59829      5.68297        -0.048255     -0.094570     -0.091933
      0.97684      5.59829      6.51734         0.059616     -0.284374     -0.172293
      2.87143      5.59829      4.01423        -0.043169     -0.086172     -0.031822
      4.76603      5.59829      1.51111         0.500276      0.129873     -1.668604
      9.48560      0.80909      9.02046         0.798877     -0.217362     -0.127192
      1.31873      3.98706      1.52661        -1.287943     -0.021497     -0.561480
      6.03829     -0.80215      9.03596        -0.797436     -0.006796      1.443069
      7.93289     -0.80215      6.53284         0.020087      0.019306      0.090986
      9.82749     -0.80215      4.02973        -0.200493     -0.021937     -0.171821
      2.26038     -0.80215      4.86410         0.060907      0.050968     -0.219875
      4.15498     -0.80215      2.36099        -0.018761     -0.266421     -1.001675
      0.36579      8.77626      7.36722        -0.104730      0.005664      0.191182
      8.87455      3.98706      9.87033        -1.394256      0.003084      1.153587
      3.20204      3.98706      8.20159        -0.812888      0.015157      1.254201
      5.09664      3.98706      5.69847        -0.011608     -0.022901      0.081365
      6.99123      3.98706      3.19536        -0.032315      0.000523     -0.249315
      8.88583      3.98706      0.69224        -1.522047     -0.035627     -0.342112
      5.70769     -2.41338      4.84860        -0.055932      0.132334     -0.142376
      7.60228     -2.41338      2.34548         0.426207      0.283750     -1.309444
      1.91849      7.16503      9.85483         1.066214     -0.489448      0.027213
      3.81309      7.16503      7.35171         0.040116      0.261833      0.009441
      0.03518      7.16503      3.17986         0.132943      0.074726     -0.412754
      1.92978      7.16503      0.67674         0.313956      0.547432      0.594851
      6.64934      2.37583      8.18608         0.099796     -0.082490      0.746306
      8.54394      2.37583      5.68297        -0.059996      0.083803     -0.107499
      0.97684      2.37583      6.51734         0.069535      0.305694     -0.185218
      2.87143      2.37583      4.01423        -0.001194      0.090658     -0.087789
      4.76603      2.37583      1.51111         0.283256      0.417134     -0.624223
      9.48560     -2.41338      9.02046         0.801693      0.217048     -0.129068
 -----------------------------------------------------------------------------------
    total drift:                               -0.032292      0.015679     -0.009871


--------------------------------------------------------------------------------------------------------



  FREE ENERGIE OF THE ION-ELECTRON SYSTEM (eV)
  ---------------------------------------------------
  free  energy   TOTEN  =      -353.69807292 eV

  energy  without entropy=     -352.58471238  energy(sigma->0) =     -353.14139265
 


--------------------------------------------------------------------------------------------------------


    POTLOK:  cpu time    0.0515: real time    0.0526


--------------------------------------------------------------------------------------------------------


     LOOP+:  cpu time   96.9275: real time   97.2496
    4ORBIT:  cpu time    0.0000: real time    0.0000

 total amount of memory used by VASP MPI-rank0    45095. kBytes
=======================================================================

   base      :      30000. kBytes
   nonlr-proj:       2260. kBytes
   fftplans  :       3298. kBytes
   grid      :       5820. kBytes
   one-center:         93. kBytes
   wavefun   :       3624. kBytes
 
  
  
 General timing and accounting informations for this job:
 ========================================================
  
                  Total CPU time used (sec):       99.040
                            User time (sec):       98.324
                          System time (sec):        0.716
                         Elapsed time (sec):       99.807
  
                   Maximum memory used (kb):      227940.
                   Average memory used (kb):           0.
  
                          Minor page faults:        85770
                          Major page faults:            0
                 Voluntary context switches:          932
