<?xml version="1.0" encoding="ISO-8859-1"?>
<modeling>
 <generator>
  <i name="program" type="string">vasp </i>
  <i name="version" type="string">6.1.0  </i>
  <i name="subversion" type="string">28Jan20 (build Mar 31 2020 17:42:31) gamma-only                       parallel </i>
  <i name="platform" type="string">LinuxIFC </i>
  <i name="date" type="string">2020 04 13 </i>
  <i name="time" type="string">04:16:41 </i>
 </generator>
 <incar>
  <i type="string" name="SYSTEM">"Millerite NiS"</i>
  <i type="int" name="NSIM">     4</i>
  <i type="int" name="NELM">   100</i>
  <i name="ENCUT">    450.00000000</i>
  <i type="string" name="LREAL">A</i>
  <i type="int" name="ISMEAR">     0</i>
  <i type="int" name="NWRITE">     2</i>
  <i type="logical" name="LWAVE"> F  </i>
  <i type="logical" name="LCHARG"> F  </i>
  <i type="int" name="NCORE">     6</i>
  <i type="int" name="NELM">   100</i>
 </incar>
 <structure name="primitive_cell" >
  <crystal>
   <varray name="basis" >
    <v>      10.40335375      -4.78920500       0.00000000 </v>
    <v>       0.00000000       9.57841000       0.00000000 </v>
    <v>       0.00000000       0.00000000      20.50076286 </v>
   </varray>
   <i name="volume">   2042.85156262 </i>
   <varray name="rec_basis" >
    <v>       0.09612285       0.00000000       0.00000000 </v>
    <v>       0.04806142       0.10440146       0.00000000 </v>
    <v>       0.00000000       0.00000000       0.04877867 </v>
   </varray>
  </crystal>
  <varray name="positions" >
   <v>       0.58044680       0.07437514       0.34941513 </v>
   <v>       0.76256081       0.16543215       0.22731652 </v>
   <v>       0.94467483       0.25648915       0.10521791 </v>
   <v>       0.39833278       0.98331813       0.47151374 </v>
   <v>       0.03518947       0.80174648       0.26801605 </v>
   <v>       0.21730349       0.89280348       0.14591744 </v>
   <v>       0.39941750       0.98386049       0.02381883 </v>
   <v>       0.67096144       0.61963246       0.51221327 </v>
   <v>       0.85307546       0.71068947       0.39011466 </v>
   <v>       0.12570412       0.34700380       0.43081420 </v>
   <v>       0.30781813       0.43806081       0.30871559 </v>
   <v>       0.48993215       0.52911781       0.18661698 </v>
   <v>       0.67204616       0.62017482       0.06451837 </v>
   <v>       0.23035801       0.03143375       0.40699537 </v>
   <v>       0.41247203       0.12249075       0.28489676 </v>
   <v>       0.59458604       0.21354776       0.16279815 </v>
   <v>       0.77670006       0.30460477       0.04069954 </v>
   <v>       0.04932872       0.94091910       0.08139907 </v>
   <v>       0.68510069       0.75880508       0.32559629 </v>
   <v>       0.86721470       0.84986209       0.20349768 </v>
   <v>       0.13984337       0.48617642       0.24419722 </v>
   <v>       0.32195738       0.57723343       0.12209861 </v>
   <v>       0.50407140       0.66829044       0.00000000 </v>
   <v>       0.95772935       0.39511942       0.36629583 </v>
   <v>       0.39833278       0.24752413       0.47151374 </v>
   <v>       0.58044680       0.33858114       0.34941513 </v>
   <v>       0.76256081       0.42963815       0.22731652 </v>
   <v>       0.94467483       0.52069515       0.10521791 </v>
   <v>       0.03518947       0.06595248       0.26801605 </v>
   <v>       0.21730349       0.15700948       0.14591744 </v>
   <v>       0.67096144       0.88383846       0.51221327 </v>
   <v>       0.85307546       0.97489547       0.39011466 </v>
   <v>       0.12570412       0.61120980       0.43081420 </v>
   <v>       0.30781813       0.70226681       0.30871559 </v>
   <v>       0.48993215       0.79332382       0.18661698 </v>
   <v>       0.67204616       0.88438082       0.06451837 </v>
   <v>       0.18441112       0.17667530       0.48070540 </v>
   <v>       0.36652513       0.26773231       0.35860679 </v>
   <v>       0.54863915       0.35878931       0.23650818 </v>
   <v>       0.73075316       0.44984632       0.11440957 </v>
   <v>       0.00338182       0.08616065       0.15510911 </v>
   <v>       0.18549584       0.17721766       0.03301050 </v>
   <v>       0.63915379       0.90404664       0.39930633 </v>
   <v>       0.82126781       0.99510365       0.27720772 </v>
   <v>       0.09389647       0.63141797       0.31790726 </v>
   <v>       0.27601049       0.72247498       0.19580864 </v>
   <v>       0.45812450       0.81353199       0.07371003 </v>
   <v>       0.91178246       0.54036097       0.44000587 </v>
   <v>       0.12675994       0.47963471       0.07446623 </v>
   <v>       0.58041790       0.20646369       0.44076206 </v>
   <v>       0.76253191       0.29752070       0.31866345 </v>
   <v>       0.94464593       0.38857770       0.19656484 </v>
   <v>       0.21727459       0.02489203       0.23726438 </v>
   <v>       0.39938860       0.11594904       0.11516577 </v>
   <v>       0.03516057       0.93383503       0.35936299 </v>
   <v>       0.85304656       0.84277802       0.48146160 </v>
   <v>       0.30778923       0.57014936       0.40006253 </v>
   <v>       0.48990325       0.66120636       0.27796392 </v>
   <v>       0.67201726       0.75226337       0.15586531 </v>
   <v>       0.85413128       0.84332038       0.03376670 </v>
   <v>       0.54863915       0.02235931       0.23650818 </v>
   <v>       0.73075316       0.11341632       0.11440957 </v>
   <v>       0.18441112       0.84024530       0.48070540 </v>
   <v>       0.36652513       0.93130231       0.35860679 </v>
   <v>       0.00338182       0.74973065       0.15510911 </v>
   <v>       0.18549584       0.84078766       0.03301050 </v>
   <v>       0.63915379       0.56761664       0.39930633 </v>
   <v>       0.82126781       0.65867365       0.27720772 </v>
   <v>       0.09389647       0.29498797       0.31790726 </v>
   <v>       0.27601049       0.38604498       0.19580864 </v>
   <v>       0.45812450       0.47710199       0.07371003 </v>
   <v>       0.91178246       0.20393097       0.44000587 </v>
  </varray>
 </structure>
 <varray name="primitive_index" >
  <v type="int" >        1 </v>
  <v type="int" >        2 </v>
  <v type="int" >        3 </v>
  <v type="int" >        4 </v>
  <v type="int" >        5 </v>
  <v type="int" >        6 </v>
  <v type="int" >        7 </v>
  <v type="int" >        8 </v>
  <v type="int" >        9 </v>
  <v type="int" >       10 </v>
  <v type="int" >       11 </v>
  <v type="int" >       12 </v>
  <v type="int" >       13 </v>
  <v type="int" >       14 </v>
  <v type="int" >       15 </v>
  <v type="int" >       16 </v>
  <v type="int" >       17 </v>
  <v type="int" >       18 </v>
  <v type="int" >       19 </v>
  <v type="int" >       20 </v>
  <v type="int" >       21 </v>
  <v type="int" >       22 </v>
  <v type="int" >       23 </v>
  <v type="int" >       24 </v>
  <v type="int" >       25 </v>
  <v type="int" >       26 </v>
  <v type="int" >       27 </v>
  <v type="int" >       28 </v>
  <v type="int" >       29 </v>
  <v type="int" >       30 </v>
  <v type="int" >       31 </v>
  <v type="int" >       32 </v>
  <v type="int" >       33 </v>
  <v type="int" >       34 </v>
  <v type="int" >       35 </v>
  <v type="int" >       36 </v>
  <v type="int" >       37 </v>
  <v type="int" >       38 </v>
  <v type="int" >       39 </v>
  <v type="int" >       40 </v>
  <v type="int" >       41 </v>
  <v type="int" >       42 </v>
  <v type="int" >       43 </v>
  <v type="int" >       44 </v>
  <v type="int" >       45 </v>
  <v type="int" >       46 </v>
  <v type="int" >       47 </v>
  <v type="int" >       48 </v>
  <v type="int" >       49 </v>
  <v type="int" >       50 </v>
  <v type="int" >       51 </v>
  <v type="int" >       52 </v>
  <v type="int" >       53 </v>
  <v type="int" >       54 </v>
  <v type="int" >       55 </v>
  <v type="int" >       56 </v>
  <v type="int" >       57 </v>
  <v type="int" >       58 </v>
  <v type="int" >       59 </v>
  <v type="int" >       60 </v>
  <v type="int" >       61 </v>
  <v type="int" >       62 </v>
  <v type="int" >       63 </v>
  <v type="int" >       64 </v>
  <v type="int" >       65 </v>
  <v type="int" >       66 </v>
  <v type="int" >       67 </v>
  <v type="int" >       68 </v>
  <v type="int" >       69 </v>
  <v type="int" >       70 </v>
  <v type="int" >       71 </v>
  <v type="int" >       72 </v>
 </varray>
 <kpoints>
  <generation param="Gamma">
   <v type="int" name="divisions">       1        1        1 </v>
   <v name="usershift">      0.00000000       0.00000000       0.00000000 </v>
   <v name="genvec1">      1.00000000       0.00000000       0.00000000 </v>
   <v name="genvec2">      0.00000000       1.00000000       0.00000000 </v>
   <v name="genvec3">      0.00000000       0.00000000       1.00000000 </v>
   <v name="shift">      0.00000000       0.00000000       0.00000000 </v>
  </generation>
  <varray name="kpointlist" >
   <v>       0.00000000       0.00000000       0.00000000 </v>
  </varray>
  <varray name="weights" >
   <v>       1.00000000 </v>
  </varray>
 </kpoints>
 <parameters>
  <separator name="general" >
   <i type="string" name="SYSTEM">"Millerite NiS"</i>
   <i type="logical" name="LCOMPAT"> F  </i>
  </separator>
  <separator name="electronic" >
   <i type="string" name="PREC">normal</i>
   <i name="ENMAX">    450.00000000</i>
   <i name="ENAUG">    703.44300000</i>
   <i name="EDIFF">      0.00010000</i>
   <i type="int" name="IALGO">    38</i>
   <i type="int" name="IWAVPR">    10</i>
   <i type="int" name="NBANDS">   480</i>
   <i type="int" name="NBANDSLOW">    -1</i>
   <i type="int" name="NBANDSHIGH">    -1</i>
   <i name="NELECT">    792.00000000</i>
   <i type="int" name="TURBO">     0</i>
   <i type="int" name="IRESTART">     0</i>
   <i type="int" name="NREBOOT">     0</i>
   <i type="int" name="NMIN">     0</i>
   <i name="EREF">      0.00000000</i>
   <separator name="electronic smearing" >
    <i type="int" name="ISMEAR">     0</i>
    <i name="SIGMA">      0.20000000</i>
    <i name="KSPACING">      0.50000000</i>
    <i type="logical" name="KGAMMA"> T  </i>
    <i type="logical" name="KBLOWUP"> T  </i>
   </separator>
   <separator name="electronic projectors" >
    <i type="logical" name="LREAL"> T  </i>
    <v name="ROPT">     -0.00050000     -0.00050000</v>
    <i type="int" name="LMAXPAW">  -100</i>
    <i type="int" name="LMAXMIX">     2</i>
    <i type="logical" name="NLSPLINE"> F  </i>
   </separator>
   <separator name="electronic startup" >
    <i type="int" name="ISTART">     0</i>
    <i type="int" name="ICHARG">     2</i>
    <i type="int" name="INIWAV">     1</i>
   </separator>
   <separator name="electronic spin" >
    <i type="int" name="ISPIN">     1</i>
    <i type="logical" name="LNONCOLLINEAR"> F  </i>
    <v name="MAGMOM">      1.00000000      1.00000000      1.00000000      1.00000000      1.00000000      1.00000000      1.00000000      1.00000000      1.00000000      1.00000000      1.00000000      1.00000000      1.00000000      1.00000000      1.00000000      1.00000000      1.00000000      1.00000000      1.00000000      1.00000000
      1.00000000      1.00000000      1.00000000      1.00000000      1.00000000      1.00000000      1.00000000      1.00000000      1.00000000      1.00000000      1.00000000      1.00000000      1.00000000      1.00000000      1.00000000      1.00000000      1.00000000      1.00000000      1.00000000      1.00000000
      1.00000000      1.00000000      1.00000000      1.00000000      1.00000000      1.00000000      1.00000000      1.00000000      1.00000000      1.00000000      1.00000000      1.00000000      1.00000000      1.00000000      1.00000000      1.00000000      1.00000000      1.00000000      1.00000000      1.00000000
      1.00000000      1.00000000      1.00000000      1.00000000      1.00000000      1.00000000      1.00000000      1.00000000      1.00000000      1.00000000      1.00000000      1.00000000</v>
    <i name="NUPDOWN">     -1.00000000</i>
    <i type="logical" name="LSORBIT"> F  </i>
    <v name="SAXIS">      0.00000000      0.00000000      1.00000000</v>
    <i type="logical" name="LSPIRAL"> F  </i>
    <v name="QSPIRAL">      0.00000000      0.00000000      0.00000000</v>
    <i type="logical" name="LZEROZ"> F  </i>
   </separator>
   <separator name="electronic exchange-correlation" >
    <i type="logical" name="LASPH"> F  </i>
    <i type="logical" name="LMETAGGA"> F  </i>
   </separator>
   <separator name="electronic convergence" >
    <i type="int" name="NELM">   100</i>
    <i type="int" name="NELMDL">    -5</i>
    <i type="int" name="NELMIN">     2</i>
    <i name="ENINI">    450.00000000</i>
    <separator name="electronic convergence detail" >
     <i type="logical" name="LDIAG"> T  </i>
     <i type="logical" name="LSUBROT"> F  </i>
     <i name="WEIMIN">      0.00000000</i>
     <i name="EBREAK">      0.00000005</i>
     <i name="DEPER">      0.30000000</i>
     <i type="int" name="NRMM">     4</i>
     <i name="TIME">      0.40000000</i>
    </separator>
   </separator>
   <separator name="electronic mixer" >
    <i name="AMIX">      0.40000000</i>
    <i name="BMIX">      1.00000000</i>
    <i name="AMIN">      0.10000000</i>
    <i name="AMIX_MAG">      1.60000000</i>
    <i name="BMIX_MAG">      1.00000000</i>
    <separator name="electronic mixer details" >
     <i type="int" name="IMIX">     4</i>
     <i type="logical" name="MIXFIRST"> F  </i>
     <i type="int" name="MAXMIX">   -45</i>
     <i name="WC">    100.00000000</i>
     <i type="int" name="INIMIX">     1</i>
     <i type="int" name="MIXPRE">     1</i>
     <i type="int" name="MREMOVE">     5</i>
    </separator>
   </separator>
   <separator name="electronic dipolcorrection" >
    <i type="logical" name="LDIPOL"> F  </i>
    <i type="logical" name="LMONO"> F  </i>
    <i type="int" name="IDIPOL">     0</i>
    <i name="EPSILON">      1.00000000</i>
    <v name="DIPOL">   -100.00000000   -100.00000000   -100.00000000</v>
    <i name="EFIELD">      0.00000000</i>
   </separator>
  </separator>
  <separator name="grids" >
   <i type="int" name="NGX">    60</i>
   <i type="int" name="NGY">    50</i>
   <i type="int" name="NGZ">   108</i>
   <i type="int" name="NGXF">   120</i>
   <i type="int" name="NGYF">   100</i>
   <i type="int" name="NGZF">   216</i>
   <i type="logical" name="ADDGRID"> F  </i>
  </separator>
  <separator name="ionic" >
   <i type="int" name="NSW">     0</i>
   <i type="int" name="IBRION">    -1</i>
   <i type="int" name="MDALGO">     0</i>
   <i type="int" name="ISIF">     2</i>
   <i name="PSTRESS">      0.00000000</i>
   <i name="EDIFFG">      0.00100000</i>
   <i type="int" name="NFREE">     0</i>
   <i name="POTIM">      0.50000000</i>
   <i name="SMASS">     -3.00000000</i>
   <i name="SCALEE">      1.00000000</i>
  </separator>
  <separator name="ionic md" >
   <i name="TEBEG">      0.00010000</i>
   <i name="TEEND">      0.00010000</i>
   <i type="int" name="NBLOCK">     1</i>
   <i type="int" name="KBLOCK">     1</i>
   <i type="int" name="NPACO">   256</i>
   <i name="APACO">     16.00000000</i>
  </separator>
  <separator name="symmetry" >
   <i type="int" name="ISYM">     2</i>
   <i name="SYMPREC">      0.00001000</i>
  </separator>
  <separator name="dos" >
   <i type="int" name="LORBIT">     0</i>
   <v name="RWIGS">     -1.00000000     -1.00000000</v>
   <i type="int" name="NEDOS">   301</i>
   <i name="EMIN">     10.00000000</i>
   <i name="EMAX">    -10.00000000</i>
   <i name="EFERMI">      0.00000000</i>
  </separator>
  <separator name="writing" >
   <i type="int" name="NWRITE">     2</i>
   <i type="logical" name="LWAVE"> F  </i>
   <i type="logical" name="LDOWNSAMPLE"> F  </i>
   <i type="logical" name="LCHARG"> F  </i>
   <i type="logical" name="LPARD"> F  </i>
   <i type="logical" name="LVTOT"> F  </i>
   <i type="logical" name="LVHAR"> F  </i>
   <i type="logical" name="LELF"> F  </i>
   <i type="logical" name="LOPTICS"> F  </i>
   <v name="STM">      0.00000000      0.00000000      0.00000000      0.00000000      0.00000000      0.00000000      0.00000000</v>
  </separator>
  <separator name="performance" >
   <i type="int" name="NPAR">     8</i>
   <i type="int" name="NSIM">     4</i>
   <i type="int" name="NBLK">    -1</i>
   <i type="logical" name="LPLANE"> T  </i>
   <i type="logical" name="LSCALAPACK"> T  </i>
   <i type="logical" name="LSCAAWARE"> F  </i>
   <i type="logical" name="LSCALU"> F  </i>
   <i type="logical" name="LASYNC"> F  </i>
   <i type="logical" name="LORBITALREAL"> F  </i>
  </separator>
  <separator name="miscellaneous" >
   <i type="int" name="IDIOT">     3</i>
   <i type="int" name="PHON_NSTRUCT">    -1</i>
   <i type="logical" name="LMUSIC"> F  </i>
   <v name="POMASS">     58.69000000     32.06600000</v>
   <v name="DARWINR">      0.00000000      0.00000000</v>
   <v name="DARWINV">      1.00000000      1.00000000</v>
   <i type="logical" name="LCORR"> T  </i>
  </separator>
  <i type="logical" name="GGA_COMPAT"> T  </i>
  <i type="logical" name="LBERRY"> F  </i>
  <i type="int" name="ICORELEVEL">     0</i>
  <i type="logical" name="LDAU"> F  </i>
  <i type="int" name="I_CONSTRAINED_M">     0</i>
  <separator name="electronic exchange-correlation" >
   <i type="string" name="GGA">--</i>
   <i type="int" name="VOSKOWN">     0</i>
   <i type="logical" name="LHFCALC"> F  </i>
   <i type="string" name="PRECFOCK"></i>
   <i type="logical" name="LSYMGRAD"> F  </i>
   <i type="logical" name="LHFONE"> F  </i>
   <i type="logical" name="LRHFCALC"> F  </i>
   <i type="logical" name="LTHOMAS"> F  </i>
   <i type="logical" name="LMODELHF"> F  </i>
   <i type="logical" name="LFOCKACE"> F  </i>
   <i name="ENCUT4O">     -1.00000000</i>
   <i type="int" name="EXXOEP">     0</i>
   <i type="int" name="FOURORBIT">     0</i>
   <i name="AEXX">      0.00000000</i>
   <i name="HFALPHA">      0.00000000</i>
   <i name="MCALPHA">      0.00000000</i>
   <i name="ALDAX">      1.00000000</i>
   <i name="AGGAX">      1.00000000</i>
   <i name="ALDAC">      1.00000000</i>
   <i name="AGGAC">      1.00000000</i>
   <i type="int" name="NKREDX">     1</i>
   <i type="int" name="NKREDY">     1</i>
   <i type="int" name="NKREDZ">     1</i>
   <i type="logical" name="SHIFTRED"> F  </i>
   <i type="logical" name="ODDONLY"> F  </i>
   <i type="logical" name="EVENONLY"> F  </i>
   <i type="int" name="LMAXFOCK">     0</i>
   <i type="int" name="NMAXFOCKAE">     0</i>
   <i type="logical" name="LFOCKAEDFT"> F  </i>
   <i name="HFSCREEN">      0.00000000</i>
   <i name="HFSCREENC">      0.00000000</i>
   <i type="int" name="NBANDSGWLOW">     0</i>
  </separator>
  <separator name="vdW DFT" >
   <i type="logical" name="LUSE_VDW"> F  </i>
   <i name="Zab_VDW">     -0.84910000</i>
   <i name="PARAM1">      0.12340000</i>
   <i name="PARAM2">      1.00000000</i>
   <i name="PARAM3">      0.00000000</i>
  </separator>
  <separator name="model GW" >
   <i type="int" name="MODEL_GW">     0</i>
   <i name="MODEL_EPS0">     17.02376302</i>
   <i name="MODEL_ALPHA">      1.00000000</i>
  </separator>
  <separator name="linear response parameters" >
   <i type="logical" name="LEPSILON"> F  </i>
   <i type="logical" name="LRPA"> F  </i>
   <i type="logical" name="LNABLA"> F  </i>
   <i type="logical" name="LVEL"> F  </i>
   <i type="int" name="KINTER">     0</i>
   <i name="CSHIFT">      0.10000000</i>
   <i name="OMEGAMAX">     -1.00000000</i>
   <i name="DEG_THRESHOLD">      0.00200000</i>
   <i name="RTIME">     -0.10000000</i>
   <i name="WPLASMAI">      0.00000000</i>
   <v name="DFIELD">      0.00000000      0.00000000      0.00000000</v>
   <v name="WPLASMA">      0.00000000      0.00000000      0.00000000      0.00000000      0.00000000      0.00000000      0.00000000      0.00000000      0.00000000</v>
  </separator>
  <separator name="orbital magnetization" >
   <i type="logical" name="NUCIND"> F  </i>
   <v name="MAGPOS">      0.00000000      0.00000000      0.00000000</v>
   <i type="logical" name="LNICSALL"> T  </i>
   <i type="logical" name="ORBITALMAG"> F  </i>
   <i type="logical" name="LMAGBLOCH"> F  </i>
   <i type="logical" name="LCHIMAG"> F  </i>
   <i type="logical" name="LGAUGE"> T  </i>
   <i type="int" name="MAGATOM">     0</i>
   <v name="MAGDIPOL">      0.00000000      0.00000000      0.00000000</v>
   <v name="AVECCONST">      0.00000000      0.00000000      0.00000000</v>
  </separator>
  <separator name="response functions" >
   <i type="logical" name="LFINITE_TEMPERATURE"> F  </i>
   <i type="logical" name="LADDER"> F  </i>
   <i type="logical" name="LRPAFORCE"> F  </i>
   <i type="logical" name="LFXC"> F  </i>
   <i type="logical" name="LHARTREE"> T  </i>
   <i type="int" name="IBSE">     0</i>
   <v type="int" name="KPOINT">    -1     0     0     0</v>
   <i type="logical" name="LTCTC"> F  </i>
   <i type="logical" name="LTCTE"> F  </i>
   <i type="logical" name="LTETE"> F  </i>
   <i type="logical" name="LTRIPLET"> F  </i>
   <i type="logical" name="LFXCEPS"> F  </i>
   <i type="logical" name="LFXHEG"> F  </i>
   <i type="int" name="NATURALO">     2</i>
   <i type="logical" name="LHOLEGF"> F  </i>
   <i type="logical" name="L2ORDER"> F  </i>
   <i type="logical" name="LDMP1"> F  </i>
   <i type="logical" name="LMP2LT"> F  </i>
   <i type="logical" name="LSMP2LT"> F  </i>
   <i type="logical" name="LGWLF"> F  </i>
   <i name="ENCUTGW">     -2.00000000</i>
   <i name="ENCUTGWSOFT">     -2.00000000</i>
   <i name="ENCUTLF">     -1.00000000</i>
   <i type="logical" name="LESF_SPLINES"> F  </i>
   <i type="int" name="LMAXMP2">    -1</i>
   <i name="SCISSOR">      0.00000000</i>
   <i type="int" name="NOMEGA">     0</i>
   <i type="int" name="NOMEGAR">     0</i>
   <i type="int" name="NBANDSGW">    -1</i>
   <i type="int" name="NBANDSO">    -1</i>
   <i type="int" name="NBANDSV">    -1</i>
   <i type="int" name="NELM">   100</i>
   <i type="int" name="NELMHF">     1</i>
   <i type="int" name="DIM">     3</i>
   <i type="int" name="IESPILON">     4</i>
   <i type="int" name="ANTIRES">     0</i>
   <i name="OMEGAMAX">    -30.00000000</i>
   <i name="OMEGAMIN">    -30.00000000</i>
   <i name="OMEGATL">   -200.00000000</i>
   <i type="int" name="OMEGAGRID">     0</i>
   <i name="CSHIFT">     -0.10000000</i>
   <i type="logical" name="LSELFENERGY"> F  </i>
   <i type="logical" name="LSPECTRAL"> F  </i>
   <i type="logical" name="LSPECTRALGW"> F  </i>
   <i type="logical" name="LSINGLES"> F  </i>
   <i type="logical" name="LFERMIGW"> F  </i>
   <i type="logical" name="ODDONLYGW"> F  </i>
   <i type="logical" name="EVENONLYGW"> F  </i>
   <i type="int" name="NKREDLFX">     1</i>
   <i type="int" name="NKREDLFY">     1</i>
   <i type="int" name="NKREDLFZ">     1</i>
   <i type="int" name="MAXMEM">  2800</i>
   <i type="int" name="TELESCOPE">     0</i>
   <i type="int" name="NTAUPAR">    -1</i>
   <i type="int" name="NOMEGAPAR">    -1</i>
   <i name="LAMBDA">      1.00000000</i>
  </separator>
  <separator name="External order field" >
   <i name="OFIELD_KAPPA">      0.00000000</i>
   <v name="OFIELD_K">      0.00000000      0.00000000      0.00000000</v>
   <i name="OFIELD_Q6_NEAR">      0.00000000</i>
   <i name="OFIELD_Q6_FAR">      0.00000000</i>
   <i name="OFIELD_A">      0.00000000</i>
  </separator>
 </parameters>
 <atominfo>
  <atoms>      72 </atoms>
  <types>       2 </types>
  <array name="atoms" >
   <dimension dim="1">ion</dimension>
   <field type="string">element</field>
   <field type="int">atomtype</field>
   <set>
    <rc><c>Ni</c><c>   1</c></rc>
    <rc><c>Ni</c><c>   1</c></rc>
    <rc><c>Ni</c><c>   1</c></rc>
    <rc><c>Ni</c><c>   1</c></rc>
    <rc><c>Ni</c><c>   1</c></rc>
    <rc><c>Ni</c><c>   1</c></rc>
    <rc><c>Ni</c><c>   1</c></rc>
    <rc><c>Ni</c><c>   1</c></rc>
    <rc><c>Ni</c><c>   1</c></rc>
    <rc><c>Ni</c><c>   1</c></rc>
    <rc><c>Ni</c><c>   1</c></rc>
    <rc><c>Ni</c><c>   1</c></rc>
    <rc><c>Ni</c><c>   1</c></rc>
    <rc><c>Ni</c><c>   1</c></rc>
    <rc><c>Ni</c><c>   1</c></rc>
    <rc><c>Ni</c><c>   1</c></rc>
    <rc><c>Ni</c><c>   1</c></rc>
    <rc><c>Ni</c><c>   1</c></rc>
    <rc><c>Ni</c><c>   1</c></rc>
    <rc><c>Ni</c><c>   1</c></rc>
    <rc><c>Ni</c><c>   1</c></rc>
    <rc><c>Ni</c><c>   1</c></rc>
    <rc><c>Ni</c><c>   1</c></rc>
    <rc><c>Ni</c><c>   1</c></rc>
    <rc><c>Ni</c><c>   1</c></rc>
    <rc><c>Ni</c><c>   1</c></rc>
    <rc><c>Ni</c><c>   1</c></rc>
    <rc><c>Ni</c><c>   1</c></rc>
    <rc><c>Ni</c><c>   1</c></rc>
    <rc><c>Ni</c><c>   1</c></rc>
    <rc><c>Ni</c><c>   1</c></rc>
    <rc><c>Ni</c><c>   1</c></rc>
    <rc><c>Ni</c><c>   1</c></rc>
    <rc><c>Ni</c><c>   1</c></rc>
    <rc><c>Ni</c><c>   1</c></rc>
    <rc><c>Ni</c><c>   1</c></rc>
    <rc><c>S </c><c>   2</c></rc>
    <rc><c>S </c><c>   2</c></rc>
    <rc><c>S </c><c>   2</c></rc>
    <rc><c>S </c><c>   2</c></rc>
    <rc><c>S </c><c>   2</c></rc>
    <rc><c>S </c><c>   2</c></rc>
    <rc><c>S </c><c>   2</c></rc>
    <rc><c>S </c><c>   2</c></rc>
    <rc><c>S </c><c>   2</c></rc>
    <rc><c>S </c><c>   2</c></rc>
    <rc><c>S </c><c>   2</c></rc>
    <rc><c>S </c><c>   2</c></rc>
    <rc><c>S </c><c>   2</c></rc>
    <rc><c>S </c><c>   2</c></rc>
    <rc><c>S </c><c>   2</c></rc>
    <rc><c>S </c><c>   2</c></rc>
    <rc><c>S </c><c>   2</c></rc>
    <rc><c>S </c><c>   2</c></rc>
    <rc><c>S </c><c>   2</c></rc>
    <rc><c>S </c><c>   2</c></rc>
    <rc><c>S </c><c>   2</c></rc>
    <rc><c>S </c><c>   2</c></rc>
    <rc><c>S </c><c>   2</c></rc>
    <rc><c>S </c><c>   2</c></rc>
    <rc><c>S </c><c>   2</c></rc>
    <rc><c>S </c><c>   2</c></rc>
    <rc><c>S </c><c>   2</c></rc>
    <rc><c>S </c><c>   2</c></rc>
    <rc><c>S </c><c>   2</c></rc>
    <rc><c>S </c><c>   2</c></rc>
    <rc><c>S </c><c>   2</c></rc>
    <rc><c>S </c><c>   2</c></rc>
    <rc><c>S </c><c>   2</c></rc>
    <rc><c>S </c><c>   2</c></rc>
    <rc><c>S </c><c>   2</c></rc>
    <rc><c>S </c><c>   2</c></rc>
   </set>
  </array>
  <array name="atomtypes" >
   <dimension dim="1">type</dimension>
   <field type="int">atomspertype</field>
   <field type="string">element</field>
   <field>mass</field>
   <field>valence</field>
   <field type="string">pseudopotential</field>
   <set>
    <rc><c>  36</c><c>Ni</c><c>     58.69000000</c><c>     16.00000000</c><c>  PAW_PBE Ni_pv 06Sep2000               </c></rc>
    <rc><c>  36</c><c>S </c><c>     32.06600000</c><c>      6.00000000</c><c>  PAW_PBE S 06Sep2000                   </c></rc>
   </set>
  </array>
 </atominfo>
 <structure name="initialpos" >
  <crystal>
   <varray name="basis" >
    <v>      10.40335375      -4.78920500       0.00000000 </v>
    <v>       0.00000000       9.57841000       0.00000000 </v>
    <v>       0.00000000       0.00000000      20.50076286 </v>
   </varray>
   <i name="volume">   2042.85156262 </i>
   <varray name="rec_basis" >
    <v>       0.09612285       0.00000000       0.00000000 </v>
    <v>       0.04806142       0.10440146       0.00000000 </v>
    <v>       0.00000000       0.00000000       0.04877867 </v>
   </varray>
  </crystal>
  <varray name="positions" >
   <v>       0.58044680       0.07437514       0.34941513 </v>
   <v>       0.76256081       0.16543215       0.22731652 </v>
   <v>       0.94467483       0.25648915       0.10521791 </v>
   <v>       0.39833278       0.98331813       0.47151374 </v>
   <v>       0.03518947       0.80174648       0.26801605 </v>
   <v>       0.21730349       0.89280348       0.14591744 </v>
   <v>       0.39941750       0.98386049       0.02381883 </v>
   <v>       0.67096144       0.61963246       0.51221327 </v>
   <v>       0.85307546       0.71068947       0.39011466 </v>
   <v>       0.12570412       0.34700380       0.43081420 </v>
   <v>       0.30781813       0.43806081       0.30871559 </v>
   <v>       0.48993215       0.52911781       0.18661698 </v>
   <v>       0.67204616       0.62017482       0.06451837 </v>
   <v>       0.23035801       0.03143375       0.40699537 </v>
   <v>       0.41247203       0.12249075       0.28489676 </v>
   <v>       0.59458604       0.21354776       0.16279815 </v>
   <v>       0.77670006       0.30460477       0.04069954 </v>
   <v>       0.04932872       0.94091910       0.08139907 </v>
   <v>       0.68510069       0.75880508       0.32559629 </v>
   <v>       0.86721470       0.84986209       0.20349768 </v>
   <v>       0.13984337       0.48617642       0.24419722 </v>
   <v>       0.32195738       0.57723343       0.12209861 </v>
   <v>       0.50407140       0.66829044       0.00000000 </v>
   <v>       0.95772935       0.39511942       0.36629583 </v>
   <v>       0.39833278       0.24752413       0.47151374 </v>
   <v>       0.58044680       0.33858114       0.34941513 </v>
   <v>       0.76256081       0.42963815       0.22731652 </v>
   <v>       0.94467483       0.52069515       0.10521791 </v>
   <v>       0.03518947       0.06595248       0.26801605 </v>
   <v>       0.21730349       0.15700948       0.14591744 </v>
   <v>       0.67096144       0.88383846       0.51221327 </v>
   <v>       0.85307546       0.97489547       0.39011466 </v>
   <v>       0.12570412       0.61120980       0.43081420 </v>
   <v>       0.30781813       0.70226681       0.30871559 </v>
   <v>       0.48993215       0.79332382       0.18661698 </v>
   <v>       0.67204616       0.88438082       0.06451837 </v>
   <v>       0.18441112       0.17667530       0.48070540 </v>
   <v>       0.36652513       0.26773231       0.35860679 </v>
   <v>       0.54863915       0.35878931       0.23650818 </v>
   <v>       0.73075316       0.44984632       0.11440957 </v>
   <v>       0.00338182       0.08616065       0.15510911 </v>
   <v>       0.18549584       0.17721766       0.03301050 </v>
   <v>       0.63915379       0.90404664       0.39930633 </v>
   <v>       0.82126781       0.99510365       0.27720772 </v>
   <v>       0.09389647       0.63141797       0.31790726 </v>
   <v>       0.27601049       0.72247498       0.19580864 </v>
   <v>       0.45812450       0.81353199       0.07371003 </v>
   <v>       0.91178246       0.54036097       0.44000587 </v>
   <v>       0.12675994       0.47963471       0.07446623 </v>
   <v>       0.58041790       0.20646369       0.44076206 </v>
   <v>       0.76253191       0.29752070       0.31866345 </v>
   <v>       0.94464593       0.38857770       0.19656484 </v>
   <v>       0.21727459       0.02489203       0.23726438 </v>
   <v>       0.39938860       0.11594904       0.11516577 </v>
   <v>       0.03516057       0.93383503       0.35936299 </v>
   <v>       0.85304656       0.84277802       0.48146160 </v>
   <v>       0.30778923       0.57014936       0.40006253 </v>
   <v>       0.48990325       0.66120636       0.27796392 </v>
   <v>       0.67201726       0.75226337       0.15586531 </v>
   <v>       0.85413128       0.84332038       0.03376670 </v>
   <v>       0.54863915       0.02235931       0.23650818 </v>
   <v>       0.73075316       0.11341632       0.11440957 </v>
   <v>       0.18441112       0.84024530       0.48070540 </v>
   <v>       0.36652513       0.93130231       0.35860679 </v>
   <v>       0.00338182       0.74973065       0.15510911 </v>
   <v>       0.18549584       0.84078766       0.03301050 </v>
   <v>       0.63915379       0.56761664       0.39930633 </v>
   <v>       0.82126781       0.65867365       0.27720772 </v>
   <v>       0.09389647       0.29498797       0.31790726 </v>
   <v>       0.27601049       0.38604498       0.19580864 </v>
   <v>       0.45812450       0.47710199       0.07371003 </v>
   <v>       0.91178246       0.20393097       0.44000587 </v>
  </varray>
 </structure>
 <calculation>
  <scstep>
   <time name="dav">    2.22    2.23</time>
   <time name="total">    2.28    2.29</time>
   <energy>
    <i name="alphaZ">   1820.93486007 </i>
    <i name="ewald"> 169502.37400194 </i>
    <i name="hartreedc">-291804.15154107 </i>
    <i name="XCdc">   3650.89107564 </i>
    <i name="pawpsdc"> 112729.53333415 </i>
    <i name="pawaedc">-117641.51188735 </i>
    <i name="eentropy">     -0.32120394 </i>
    <i name="bandstr">  -4665.83410959 </i>
    <i name="atom"> 136002.60505376 </i>
    <i name="e_fr_energy">   9594.51958360 </i>
    <i name="e_wo_entrp">   9594.84078754 </i>
    <i name="e_0_energy">   9594.68018557 </i>
   </energy>
  </scstep>
  <scstep>
   <time name="dav">    1.96    1.97</time>
   <time name="total">    1.96    1.97</time>
   <energy>
    <i name="e_fr_energy">    573.53592269 </i>
    <i name="e_wo_entrp">    574.39387133 </i>
    <i name="e_0_energy">    573.96489701 </i>
   </energy>
  </scstep>
  <scstep>
   <time name="dav">    2.09    2.09</time>
   <time name="total">    2.09    2.09</time>
   <energy>
    <i name="e_fr_energy">   -344.90619096 </i>
    <i name="e_wo_entrp">   -343.66713052 </i>
    <i name="e_0_energy">   -344.28666074 </i>
   </energy>
  </scstep>
  <scstep>
   <time name="dav">    2.17    2.17</time>
   <time name="total">    2.17    2.17</time>
   <energy>
    <i name="e_fr_energy">   -402.61743277 </i>
    <i name="e_wo_entrp">   -401.29419632 </i>
    <i name="e_0_energy">   -401.95581454 </i>
   </energy>
  </scstep>
  <scstep>
   <time name="dav">    2.23    2.23</time>
   <time name="total">    2.27    2.28</time>
   <energy>
    <i name="e_fr_energy">   -404.47334216 </i>
    <i name="e_wo_entrp">   -403.14858417 </i>
    <i name="e_0_energy">   -403.81096316 </i>
   </energy>
  </scstep>
  <scstep>
   <time name="dav">    2.15    2.16</time>
   <time name="total">    2.25    2.25</time>
   <energy>
    <i name="e_fr_energy">   -489.49393003 </i>
    <i name="e_wo_entrp">   -488.54494851 </i>
    <i name="e_0_energy">   -489.01943927 </i>
   </energy>
  </scstep>
  <scstep>
   <time name="dav">    2.11    2.11</time>
   <time name="total">    2.20    2.20</time>
   <energy>
    <i name="e_fr_energy">   -375.90087978 </i>
    <i name="e_wo_entrp">   -375.03643673 </i>
    <i name="e_0_energy">   -375.46865826 </i>
   </energy>
  </scstep>
  <scstep>
   <time name="dav">    2.53    2.53</time>
   <time name="total">    2.62    2.63</time>
   <energy>
    <i name="e_fr_energy">   -517.45331524 </i>
    <i name="e_wo_entrp">   -516.73114337 </i>
    <i name="e_0_energy">   -517.09222931 </i>
   </energy>
  </scstep>
  <scstep>
   <time name="dav">    2.21    2.22</time>
   <time name="total">    2.30    2.31</time>
   <energy>
    <i name="e_fr_energy">   -371.23166891 </i>
    <i name="e_wo_entrp">   -369.90946690 </i>
    <i name="e_0_energy">   -370.57056791 </i>
   </energy>
  </scstep>
  <scstep>
   <time name="dav">    2.43    2.44</time>
   <time name="total">    2.52    2.53</time>
   <energy>
    <i name="e_fr_energy">   -372.43996584 </i>
    <i name="e_wo_entrp">   -371.37732275 </i>
    <i name="e_0_energy">   -371.90864430 </i>
   </energy>
  </scstep>
  <scstep>
   <time name="dav">    2.41    2.41</time>
   <time name="total">    2.50    2.50</time>
   <energy>
    <i name="e_fr_energy">   -382.01019923 </i>
    <i name="e_wo_entrp">   -380.66429579 </i>
    <i name="e_0_energy">   -381.33724751 </i>
   </energy>
  </scstep>
  <scstep>
   <time name="dav">    2.34    2.34</time>
   <time name="total">    2.43    2.44</time>
   <energy>
    <i name="e_fr_energy">   -361.85363776 </i>
    <i name="e_wo_entrp">   -361.06771304 </i>
    <i name="e_0_energy">   -361.46067540 </i>
   </energy>
  </scstep>
  <scstep>
   <time name="dav">    2.41    2.41</time>
   <time name="total">    2.50    2.51</time>
   <energy>
    <i name="e_fr_energy">   -359.64627313 </i>
    <i name="e_wo_entrp">   -358.42645804 </i>
    <i name="e_0_energy">   -359.03636558 </i>
   </energy>
  </scstep>
  <scstep>
   <time name="dav">    2.30    2.30</time>
   <time name="total">    2.39    2.40</time>
   <energy>
    <i name="e_fr_energy">   -358.23151185 </i>
    <i name="e_wo_entrp">   -357.25047278 </i>
    <i name="e_0_energy">   -357.74099232 </i>
   </energy>
  </scstep>
  <scstep>
   <time name="dav">    2.39    2.40</time>
   <time name="total">    2.49    2.49</time>
   <energy>
    <i name="e_fr_energy">   -356.01555343 </i>
    <i name="e_wo_entrp">   -355.08047740 </i>
    <i name="e_0_energy">   -355.54801542 </i>
   </energy>
  </scstep>
  <scstep>
   <time name="dav">    2.31    2.31</time>
   <time name="total">    2.40    2.41</time>
   <energy>
    <i name="e_fr_energy">   -355.24767388 </i>
    <i name="e_wo_entrp">   -354.30711684 </i>
    <i name="e_0_energy">   -354.77739536 </i>
   </energy>
  </scstep>
  <scstep>
   <time name="dav">    2.40    2.41</time>
   <time name="total">    2.50    2.50</time>
   <energy>
    <i name="e_fr_energy">   -354.64528721 </i>
    <i name="e_wo_entrp">   -353.66376680 </i>
    <i name="e_0_energy">   -354.15452701 </i>
   </energy>
  </scstep>
  <scstep>
   <time name="dav">    2.39    2.40</time>
   <time name="total">    2.49    2.49</time>
   <energy>
    <i name="e_fr_energy">   -354.21095786 </i>
    <i name="e_wo_entrp">   -353.20471216 </i>
    <i name="e_0_energy">   -353.70783501 </i>
   </energy>
  </scstep>
  <scstep>
   <time name="dav">    2.42    2.42</time>
   <time name="total">    2.51    2.52</time>
   <energy>
    <i name="e_fr_energy">   -354.09158486 </i>
    <i name="e_wo_entrp">   -353.04650065 </i>
    <i name="e_0_energy">   -353.56904276 </i>
   </energy>
  </scstep>
  <scstep>
   <time name="dav">    2.38    2.38</time>
   <time name="total">    2.47    2.48</time>
   <energy>
    <i name="e_fr_energy">   -353.90121677 </i>
    <i name="e_wo_entrp">   -352.86191816 </i>
    <i name="e_0_energy">   -353.38156747 </i>
   </energy>
  </scstep>
  <scstep>
   <time name="dav">    2.38    2.38</time>
   <time name="total">    2.48    2.49</time>
   <energy>
    <i name="e_fr_energy">   -353.92442393 </i>
    <i name="e_wo_entrp">   -352.85848984 </i>
    <i name="e_0_energy">   -353.39145689 </i>
   </energy>
  </scstep>
  <scstep>
   <time name="dav">    2.39    2.40</time>
   <time name="total">    2.49    2.50</time>
   <energy>
    <i name="e_fr_energy">   -353.75615677 </i>
    <i name="e_wo_entrp">   -352.63975968 </i>
    <i name="e_0_energy">   -353.19795823 </i>
   </energy>
  </scstep>
  <scstep>
   <time name="dav">    2.39    2.40</time>
   <time name="total">    2.49    2.50</time>
   <energy>
    <i name="e_fr_energy">   -353.76216891 </i>
    <i name="e_wo_entrp">   -352.64654019 </i>
    <i name="e_0_energy">   -353.20435455 </i>
   </energy>
  </scstep>
  <scstep>
   <time name="dav">    2.25    2.26</time>
   <time name="total">    2.35    2.36</time>
   <energy>
    <i name="e_fr_energy">   -353.74274123 </i>
    <i name="e_wo_entrp">   -352.56868932 </i>
    <i name="e_0_energy">   -353.15571527 </i>
   </energy>
  </scstep>
  <scstep>
   <time name="dav">    2.23    2.23</time>
   <time name="total">    2.33    2.33</time>
   <energy>
    <i name="e_fr_energy">   -353.71428816 </i>
    <i name="e_wo_entrp">   -352.58303557 </i>
    <i name="e_0_energy">   -353.14866186 </i>
   </energy>
  </scstep>
  <scstep>
   <time name="dav">    2.32    2.33</time>
   <time name="total">    2.42    2.43</time>
   <energy>
    <i name="e_fr_energy">   -353.72060202 </i>
    <i name="e_wo_entrp">   -352.56594387 </i>
    <i name="e_0_energy">   -353.14327295 </i>
   </energy>
  </scstep>
  <scstep>
   <time name="dav">    2.49    2.49</time>
   <time name="total">    2.59    2.59</time>
   <energy>
    <i name="e_fr_energy">   -353.70434863 </i>
    <i name="e_wo_entrp">   -352.56484161 </i>
    <i name="e_0_energy">   -353.13459512 </i>
   </energy>
  </scstep>
  <scstep>
   <time name="dav">    2.46    2.46</time>
   <time name="total">    2.56    2.57</time>
   <energy>
    <i name="e_fr_energy">   -353.70680446 </i>
    <i name="e_wo_entrp">   -352.58357597 </i>
    <i name="e_0_energy">   -353.14519022 </i>
   </energy>
  </scstep>
  <scstep>
   <time name="dav">    2.41    2.42</time>
   <time name="total">    2.51    2.52</time>
   <energy>
    <i name="e_fr_energy">   -353.69770030 </i>
    <i name="e_wo_entrp">   -352.57364890 </i>
    <i name="e_0_energy">   -353.13567460 </i>
   </energy>
  </scstep>
  <scstep>
   <time name="dav">    2.33    2.33</time>
   <time name="total">    2.43    2.44</time>
   <energy>
    <i name="e_fr_energy">   -353.69453483 </i>
    <i name="e_wo_entrp">   -352.57095235 </i>
    <i name="e_0_energy">   -353.13274359 </i>
   </energy>
  </scstep>
  <scstep>
   <time name="dav">    2.37    2.38</time>
   <time name="total">    2.47    2.48</time>
   <energy>
    <i name="e_fr_energy">   -353.69487472 </i>
    <i name="e_wo_entrp">   -352.57666226 </i>
    <i name="e_0_energy">   -353.13576849 </i>
   </energy>
  </scstep>
  <scstep>
   <time name="dav">    2.12    2.12</time>
   <time name="total">    2.22    2.23</time>
   <energy>
    <i name="e_fr_energy">   -353.69343737 </i>
    <i name="e_wo_entrp">   -352.57480832 </i>
    <i name="e_0_energy">   -353.13412284 </i>
   </energy>
  </scstep>
  <scstep>
   <time name="dav">    2.06    2.07</time>
   <time name="total">    2.16    2.17</time>
   <energy>
    <i name="e_fr_energy">   -353.69397781 </i>
    <i name="e_wo_entrp">   -352.57655091 </i>
    <i name="e_0_energy">   -353.13526436 </i>
   </energy>
  </scstep>
  <scstep>
   <time name="dav">    1.98    1.98</time>
   <time name="total">    2.08    2.08</time>
   <energy>
    <i name="e_fr_energy">   -353.69417159 </i>
    <i name="e_wo_entrp">   -352.58104552 </i>
    <i name="e_0_energy">   -353.13760855 </i>
   </energy>
  </scstep>
  <scstep>
   <time name="dav">    1.84    1.84</time>
   <time name="total">    1.94    1.95</time>
   <energy>
    <i name="e_fr_energy">   -353.69441347 </i>
    <i name="e_wo_entrp">   -352.57976550 </i>
    <i name="e_0_energy">   -353.13708949 </i>
   </energy>
  </scstep>
  <scstep>
   <time name="dav">    1.66    1.66</time>
   <time name="total">    1.76    1.77</time>
   <energy>
    <i name="e_fr_energy">   -353.69506533 </i>
    <i name="e_wo_entrp">   -352.58176933 </i>
    <i name="e_0_energy">   -353.13841733 </i>
   </energy>
  </scstep>
  <scstep>
   <time name="dav">    1.39    1.39</time>
   <time name="total">    1.49    1.50</time>
   <energy>
    <i name="e_fr_energy">   -353.69525018 </i>
    <i name="e_wo_entrp">   -352.58107950 </i>
    <i name="e_0_energy">   -353.13816484 </i>
   </energy>
  </scstep>
  <scstep>
   <time name="dav">    1.39    1.39</time>
   <time name="total">    1.49    1.49</time>
   <energy>
    <i name="e_fr_energy">   -353.69576995 </i>
    <i name="e_wo_entrp">   -352.58376595 </i>
    <i name="e_0_energy">   -353.13976795 </i>
   </energy>
  </scstep>
  <scstep>
   <time name="dav">    1.36    1.37</time>
   <time name="total">    1.47    1.47</time>
   <energy>
    <i name="e_fr_energy">   -353.69600638 </i>
    <i name="e_wo_entrp">   -352.58367678 </i>
    <i name="e_0_energy">   -353.13984158 </i>
   </energy>
  </scstep>
  <scstep>
   <time name="dav">    1.54    1.54</time>
   <time name="total">    1.64    1.64</time>
   <energy>
    <i name="e_fr_energy">   -353.69715038 </i>
    <i name="e_wo_entrp">   -352.58475501 </i>
    <i name="e_0_energy">   -353.14095270 </i>
   </energy>
  </scstep>
  <scstep>
   <time name="dav">    1.38    1.39</time>
   <time name="total">    1.49    1.49</time>
   <energy>
    <i name="e_fr_energy">   -353.69744059 </i>
    <i name="e_wo_entrp">   -352.58450668 </i>
    <i name="e_0_energy">   -353.14097364 </i>
   </energy>
  </scstep>
  <scstep>
   <time name="dav">    1.40    1.40</time>
   <time name="total">    1.50    1.50</time>
   <energy>
    <i name="e_fr_energy">   -353.69798150 </i>
    <i name="e_wo_entrp">   -352.58465785 </i>
    <i name="e_0_energy">   -353.14131967 </i>
   </energy>
  </scstep>
  <scstep>
   <time name="dav">    1.37    1.37</time>
   <time name="total">    1.42    1.43</time>
   <energy>
    <i name="alphaZ">   1820.93486007 </i>
    <i name="ewald"> 169502.37400194 </i>
    <i name="hartreedc">-291153.50768093 </i>
    <i name="XCdc">   3621.79148849 </i>
    <i name="pawpsdc"> 130462.57764669 </i>
    <i name="pawaedc">-135432.24709138 </i>
    <i name="eentropy">     -1.11336054 </i>
    <i name="bandstr"> -15177.11299101 </i>
    <i name="atom"> 136002.60505376 </i>
    <i name="e_fr_energy">   -353.69807292 </i>
    <i name="e_wo_entrp">   -352.58471238 </i>
    <i name="e_0_energy">   -353.14139265 </i>
   </energy>
  </scstep>
  <structure>
   <crystal>
    <varray name="basis" >
     <v>      10.40335375      -4.78920500       0.00000000 </v>
     <v>       0.00000000       9.57841000       0.00000000 </v>
     <v>       0.00000000       0.00000000      20.50076286 </v>
    </varray>
    <i name="volume">   2042.85156262 </i>
    <varray name="rec_basis" >
     <v>       0.09612285       0.00000000       0.00000000 </v>
     <v>       0.04806142       0.10440146       0.00000000 </v>
     <v>       0.00000000       0.00000000       0.04877867 </v>
    </varray>
   </crystal>
   <varray name="positions" >
    <v>       0.58044680       0.07437514       0.34941513 </v>
    <v>       0.76256081       0.16543215       0.22731652 </v>
    <v>       0.94467483       0.25648915       0.10521791 </v>
    <v>       0.39833278       0.98331813       0.47151374 </v>
    <v>       0.03518947       0.80174648       0.26801605 </v>
    <v>       0.21730349       0.89280348       0.14591744 </v>
    <v>       0.39941750       0.98386049       0.02381883 </v>
    <v>       0.67096144       0.61963246       0.51221327 </v>
    <v>       0.85307546       0.71068947       0.39011466 </v>
    <v>       0.12570412       0.34700380       0.43081420 </v>
    <v>       0.30781813       0.43806081       0.30871559 </v>
    <v>       0.48993215       0.52911781       0.18661698 </v>
    <v>       0.67204616       0.62017482       0.06451837 </v>
    <v>       0.23035801       0.03143375       0.40699537 </v>
    <v>       0.41247203       0.12249075       0.28489676 </v>
    <v>       0.59458604       0.21354776       0.16279815 </v>
    <v>       0.77670006       0.30460477       0.04069954 </v>
    <v>       0.04932872       0.94091910       0.08139907 </v>
    <v>       0.68510069       0.75880508       0.32559629 </v>
    <v>       0.86721470       0.84986209       0.20349768 </v>
    <v>       0.13984337       0.48617642       0.24419722 </v>
    <v>       0.32195738       0.57723343       0.12209861 </v>
    <v>       0.50407140       0.66829044       0.00000000 </v>
    <v>       0.95772935       0.39511942       0.36629583 </v>
    <v>       0.39833278       0.24752413       0.47151374 </v>
    <v>       0.58044680       0.33858114       0.34941513 </v>
    <v>       0.76256081       0.42963815       0.22731652 </v>
    <v>       0.94467483       0.52069515       0.10521791 </v>
    <v>       0.03518947       0.06595248       0.26801605 </v>
    <v>       0.21730349       0.15700948       0.14591744 </v>
    <v>       0.67096144       0.88383846       0.51221327 </v>
    <v>       0.85307546       0.97489547       0.39011466 </v>
    <v>       0.12570412       0.61120980       0.43081420 </v>
    <v>       0.30781813       0.70226681       0.30871559 </v>
    <v>       0.48993215       0.79332382       0.18661698 </v>
    <v>       0.67204616       0.88438082       0.06451837 </v>
    <v>       0.18441112       0.17667530       0.48070540 </v>
    <v>       0.36652513       0.26773231       0.35860679 </v>
    <v>       0.54863915       0.35878931       0.23650818 </v>
    <v>       0.73075316       0.44984632       0.11440957 </v>
    <v>       0.00338182       0.08616065       0.15510911 </v>
    <v>       0.18549584       0.17721766       0.03301050 </v>
    <v>       0.63915379       0.90404664       0.39930633 </v>
    <v>       0.82126781       0.99510365       0.27720772 </v>
    <v>       0.09389647       0.63141797       0.31790726 </v>
    <v>       0.27601049       0.72247498       0.19580864 </v>
    <v>       0.45812450       0.81353199       0.07371003 </v>
    <v>       0.91178246       0.54036097       0.44000587 </v>
    <v>       0.12675994       0.47963471       0.07446623 </v>
    <v>       0.58041790       0.20646369       0.44076206 </v>
    <v>       0.76253191       0.29752070       0.31866345 </v>
    <v>       0.94464593       0.38857770       0.19656484 </v>
    <v>       0.21727459       0.02489203       0.23726438 </v>
    <v>       0.39938860       0.11594904       0.11516577 </v>
    <v>       0.03516057       0.93383503       0.35936299 </v>
    <v>       0.85304656       0.84277802       0.48146160 </v>
    <v>       0.30778923       0.57014936       0.40006253 </v>
    <v>       0.48990325       0.66120636       0.27796392 </v>
    <v>       0.67201726       0.75226337       0.15586531 </v>
    <v>       0.85413128       0.84332038       0.03376670 </v>
    <v>       0.54863915       0.02235931       0.23650818 </v>
    <v>       0.73075316       0.11341632       0.11440957 </v>
    <v>       0.18441112       0.84024530       0.48070540 </v>
    <v>       0.36652513       0.93130231       0.35860679 </v>
    <v>       0.00338182       0.74973065       0.15510911 </v>
    <v>       0.18549584       0.84078766       0.03301050 </v>
    <v>       0.63915379       0.56761664       0.39930633 </v>
    <v>       0.82126781       0.65867365       0.27720772 </v>
    <v>       0.09389647       0.29498797       0.31790726 </v>
    <v>       0.27601049       0.38604498       0.19580864 </v>
    <v>       0.45812450       0.47710199       0.07371003 </v>
    <v>       0.91178246       0.20393097       0.44000587 </v>
   </varray>
  </structure>
  <varray name="forces" >
   <v>      -0.17835544      -0.02965195       0.19101082 </v>
   <v>       0.19783258       0.10746330       0.06958039 </v>
   <v>       0.59290733       0.46317114       0.60805223 </v>
   <v>      -0.31554970       0.25283714      -1.16524132 </v>
   <v>      -0.01252088       0.04109473       0.13566561 </v>
   <v>       0.21083146       0.10280377      -0.27292302 </v>
   <v>      -1.12819762      -0.55346374       1.95191883 </v>
   <v>       0.89800839       0.94576488      -1.93601084 </v>
   <v>      -0.05013427      -0.26216859       0.31980491 </v>
   <v>      -0.24850906      -0.64783832      -0.53134894 </v>
   <v>      -0.17853341       0.00912499       0.17948203 </v>
   <v>       0.04962876       0.22070148      -0.19405746 </v>
   <v>       0.42106607       0.26218612       0.73148569 </v>
   <v>      -0.30952219       0.01380487       0.17619713 </v>
   <v>       0.20356973       0.01990179       0.17319499 </v>
   <v>      -0.01021211       0.00841581      -0.28379705 </v>
   <v>      -0.33947903      -0.02342675       1.72330132 </v>
   <v>       0.27869666       0.21117270      -0.71143045 </v>
   <v>      -0.22218669      -0.03487662       0.33466874 </v>
   <v>       0.11198157       0.03890770       0.11655323 </v>
   <v>       0.08703617      -0.00938589       0.13146669 </v>
   <v>       0.02364091      -0.06402409      -0.51946140 </v>
   <v>      -0.39464284       0.04549728       1.95044854 </v>
   <v>      -0.09025869       0.00315899       0.51986723 </v>
   <v>      -0.31171528      -0.25736042      -1.15624917 </v>
   <v>      -0.22154256       0.02941051       0.18906630 </v>
   <v>       0.16548266      -0.09340206       0.04829278 </v>
   <v>       0.51838985      -0.46184967       0.61826659 </v>
   <v>      -0.02363665      -0.07377338       0.04298567 </v>
   <v>       0.12125237      -0.03481037      -0.56970738 </v>
   <v>       0.91445641      -0.95681576      -1.94573646 </v>
   <v>      -0.06296725       0.25989116       0.33001967 </v>
   <v>      -0.24752957       0.64990184      -0.53805401 </v>
   <v>      -0.18405901      -0.03668160       0.21059707 </v>
   <v>       0.05035480      -0.08828282       0.05924411 </v>
   <v>       0.49431657      -0.19995417       0.66004113 </v>
   <v>       1.06704307       0.48957760       0.01884453 </v>
   <v>       0.03362239      -0.25450681      -0.01163754 </v>
   <v>      -0.05087665      -0.11057382      -0.11575128 </v>
   <v>       0.33655984      -0.27613355      -1.32085576 </v>
   <v>       0.11174045      -0.13796790      -0.26421198 </v>
   <v>      -0.69047269      -0.65502775       1.34135033 </v>
   <v>       0.10002800       0.07779501       0.74935785 </v>
   <v>      -0.04825502      -0.09457013      -0.09193282 </v>
   <v>       0.05961639      -0.28437410      -0.17229273 </v>
   <v>      -0.04316869      -0.08617206      -0.03182199 </v>
   <v>       0.50027614       0.12987252      -1.66860414 </v>
   <v>       0.79887688      -0.21736224      -0.12719226 </v>
   <v>      -1.28794303      -0.02149736      -0.56148050 </v>
   <v>      -0.79743569      -0.00679567       1.44306909 </v>
   <v>       0.02008697       0.01930590       0.09098594 </v>
   <v>      -0.20049321      -0.02193746      -0.17182081 </v>
   <v>       0.06090659       0.05096840      -0.21987491 </v>
   <v>      -0.01876149      -0.26642146      -1.00167546 </v>
   <v>      -0.10473049       0.00566439       0.19118190 </v>
   <v>      -1.39425602       0.00308435       1.15358696 </v>
   <v>      -0.81288841       0.01515689       1.25420121 </v>
   <v>      -0.01160799      -0.02290113       0.08136544 </v>
   <v>      -0.03231485       0.00052321      -0.24931536 </v>
   <v>      -1.52204695      -0.03562660      -0.34211184 </v>
   <v>      -0.05593206       0.13233393      -0.14237564 </v>
   <v>       0.42620685       0.28374997      -1.30944426 </v>
   <v>       1.06621407      -0.48944802       0.02721329 </v>
   <v>       0.04011638       0.26183300       0.00944106 </v>
   <v>       0.13294320       0.07472601      -0.41275376 </v>
   <v>       0.31395620       0.54743210       0.59485087 </v>
   <v>       0.09979638      -0.08248955       0.74630624 </v>
   <v>      -0.05999629       0.08380347      -0.10749909 </v>
   <v>       0.06953488       0.30569449      -0.18521791 </v>
   <v>      -0.00119375       0.09065815      -0.08778881 </v>
   <v>       0.28325573       0.41713433      -0.62422260 </v>
   <v>       0.80169281       0.21704788      -0.12906750 </v>
  </varray>
  <varray name="stress" >
   <v>     -26.48452971       0.26035428      11.34266446 </v>
   <v>       0.26035414     -18.78774501       0.71172900 </v>
   <v>      11.34266429       0.71172909     -21.34260804 </v>
  </varray>
  <energy>
   <i name="e_fr_energy">   -353.69807292 </i>
   <i name="e_wo_entrp">   -352.58471238 </i>
   <i name="e_0_energy">   -353.14139265 </i>
  </energy>
  <time name="totalsc">   96.93   97.25</time>
  <eigenvalues>
   <array>
    <dimension dim="1">band</dimension>
    <dimension dim="2">kpoint</dimension>
    <dimension dim="3">spin</dimension>
    <field>eigene</field>
    <field>occ</field>
    <set>
     <set comment="spin 1">
      <set comment="kpoint 1">
       <r>  -62.9596    1.0000 </r>
       <r>  -62.9310    1.0000 </r>
       <r>  -62.9192    1.0000 </r>
       <r>  -62.9037    1.0000 </r>
       <r>  -62.9001    1.0000 </r>
       <r>  -62.8963    1.0000 </r>
       <r>  -62.8941    1.0000 </r>
       <r>  -62.8912    1.0000 </r>
       <r>  -62.8888    1.0000 </r>
       <r>  -62.8869    1.0000 </r>
       <r>  -62.8775    1.0000 </r>
       <r>  -62.8742    1.0000 </r>
       <r>  -62.8723    1.0000 </r>
       <r>  -62.8707    1.0000 </r>
       <r>  -62.8694    1.0000 </r>
       <r>  -62.8657    1.0000 </r>
       <r>  -62.8618    1.0000 </r>
       <r>  -62.8610    1.0000 </r>
       <r>  -62.8601    1.0000 </r>
       <r>  -62.8542    1.0000 </r>
       <r>  -62.8517    1.0000 </r>
       <r>  -62.8510    1.0000 </r>
       <r>  -62.8466    1.0000 </r>
       <r>  -62.8437    1.0000 </r>
       <r>  -62.8408    1.0000 </r>
       <r>  -62.8367    1.0000 </r>
       <r>  -62.8355    1.0000 </r>
       <r>  -62.8347    1.0000 </r>
       <r>  -62.8234    1.0000 </r>
       <r>  -62.8234    1.0000 </r>
       <r>  -62.8223    1.0000 </r>
       <r>  -62.8196    1.0000 </r>
       <r>  -62.8167    1.0000 </r>
       <r>  -62.8165    1.0000 </r>
       <r>  -62.8115    1.0000 </r>
       <r>  -62.8039    1.0000 </r>
       <r>  -62.8038    1.0000 </r>
       <r>  -62.8037    1.0000 </r>
       <r>  -62.7989    1.0000 </r>
       <r>  -62.7988    1.0000 </r>
       <r>  -62.7956    1.0000 </r>
       <r>  -62.7845    1.0000 </r>
       <r>  -62.7813    1.0000 </r>
       <r>  -62.7744    1.0000 </r>
       <r>  -62.7693    1.0000 </r>
       <r>  -62.7665    1.0000 </r>
       <r>  -62.7628    1.0000 </r>
       <r>  -62.7572    1.0000 </r>
       <r>  -62.7505    1.0000 </r>
       <r>  -62.7259    1.0000 </r>
       <r>  -62.7078    1.0000 </r>
       <r>  -62.6990    1.0000 </r>
       <r>  -62.6958    1.0000 </r>
       <r>  -62.6919    1.0000 </r>
       <r>  -62.6857    1.0000 </r>
       <r>  -62.6641    1.0000 </r>
       <r>  -62.6479    1.0000 </r>
       <r>  -62.6462    1.0000 </r>
       <r>  -62.6426    1.0000 </r>
       <r>  -62.6411    1.0000 </r>
       <r>  -62.6364    1.0000 </r>
       <r>  -62.6326    1.0000 </r>
       <r>  -62.6309    1.0000 </r>
       <r>  -62.6278    1.0000 </r>
       <r>  -62.6233    1.0000 </r>
       <r>  -62.6090    1.0000 </r>
       <r>  -62.5998    1.0000 </r>
       <r>  -62.5991    1.0000 </r>
       <r>  -62.5893    1.0000 </r>
       <r>  -62.5865    1.0000 </r>
       <r>  -62.5657    1.0000 </r>
       <r>  -62.5527    1.0000 </r>
       <r>  -62.5490    1.0000 </r>
       <r>  -62.5302    1.0000 </r>
       <r>  -62.5039    1.0000 </r>
       <r>  -62.4866    1.0000 </r>
       <r>  -62.4617    1.0000 </r>
       <r>  -62.4569    1.0000 </r>
       <r>  -62.4530    1.0000 </r>
       <r>  -62.4328    1.0000 </r>
       <r>  -62.4321    1.0000 </r>
       <r>  -62.4163    1.0000 </r>
       <r>  -62.4053    1.0000 </r>
       <r>  -62.3582    1.0000 </r>
       <r>  -62.3395    1.0000 </r>
       <r>  -62.1643    1.0000 </r>
       <r>  -62.1563    1.0000 </r>
       <r>  -62.1079    1.0000 </r>
       <r>  -62.1047    1.0000 </r>
       <r>  -62.0829    1.0000 </r>
       <r>  -62.0360    1.0000 </r>
       <r>  -61.9256    1.0000 </r>
       <r>  -61.9241    1.0000 </r>
       <r>  -61.8955    1.0000 </r>
       <r>  -61.8880    1.0000 </r>
       <r>  -61.8371    1.0000 </r>
       <r>  -61.7813    1.0000 </r>
       <r>  -61.7461    1.0000 </r>
       <r>  -61.7085    1.0000 </r>
       <r>  -61.6641    1.0000 </r>
       <r>  -61.5596    1.0000 </r>
       <r>  -61.5365    1.0000 </r>
       <r>  -61.5338    1.0000 </r>
       <r>  -61.4861    1.0000 </r>
       <r>  -61.4780    1.0000 </r>
       <r>  -61.4719    1.0000 </r>
       <r>  -61.2752    1.0000 </r>
       <r>  -61.2457    1.0000 </r>
       <r>  -14.1851    1.0000 </r>
       <r>  -13.4895    1.0000 </r>
       <r>  -13.4393    1.0000 </r>
       <r>  -13.4109    1.0000 </r>
       <r>  -13.2306    1.0000 </r>
       <r>  -13.1806    1.0000 </r>
       <r>  -12.9976    1.0000 </r>
       <r>  -12.9691    1.0000 </r>
       <r>  -12.8827    1.0000 </r>
       <r>  -12.7847    1.0000 </r>
       <r>  -12.7060    1.0000 </r>
       <r>  -12.6640    1.0000 </r>
       <r>  -12.5248    1.0000 </r>
       <r>  -12.4753    1.0000 </r>
       <r>  -12.4622    1.0000 </r>
       <r>  -12.4035    1.0000 </r>
       <r>  -12.3347    1.0000 </r>
       <r>  -12.2639    1.0000 </r>
       <r>  -12.2550    1.0000 </r>
       <r>  -12.1903    1.0000 </r>
       <r>  -12.1095    1.0000 </r>
       <r>  -12.0636    1.0000 </r>
       <r>  -11.9115    1.0000 </r>
       <r>  -11.8424    1.0000 </r>
       <r>  -11.8351    1.0000 </r>
       <r>  -11.7780    1.0000 </r>
       <r>  -11.6719    1.0000 </r>
       <r>  -11.6167    1.0000 </r>
       <r>  -11.5750    1.0000 </r>
       <r>  -11.3593    1.0000 </r>
       <r>  -11.3131    1.0000 </r>
       <r>  -11.2942    1.0000 </r>
       <r>  -11.0542    1.0000 </r>
       <r>  -10.9753    1.0000 </r>
       <r>  -10.9621    1.0000 </r>
       <r>  -10.5393    1.0000 </r>
       <r>   -6.0981    1.0000 </r>
       <r>   -6.0279    1.0000 </r>
       <r>   -5.6529    1.0000 </r>
       <r>   -5.6043    1.0000 </r>
       <r>   -5.5490    1.0000 </r>
       <r>   -5.3534    1.0000 </r>
       <r>   -5.3352    1.0000 </r>
       <r>   -5.2982    1.0000 </r>
       <r>   -5.2555    1.0000 </r>
       <r>   -5.1823    1.0000 </r>
       <r>   -5.1499    1.0000 </r>
       <r>   -5.1428    1.0000 </r>
       <r>   -5.0193    1.0000 </r>
       <r>   -4.9873    1.0000 </r>
       <r>   -4.9796    1.0000 </r>
       <r>   -4.9227    1.0000 </r>
       <r>   -4.8870    1.0000 </r>
       <r>   -4.8623    1.0000 </r>
       <r>   -4.8252    1.0000 </r>
       <r>   -4.8049    1.0000 </r>
       <r>   -4.7700    1.0000 </r>
       <r>   -4.7134    1.0000 </r>
       <r>   -4.6602    1.0000 </r>
       <r>   -4.6469    1.0000 </r>
       <r>   -4.5231    1.0000 </r>
       <r>   -4.4741    1.0000 </r>
       <r>   -4.4199    1.0000 </r>
       <r>   -4.3833    1.0000 </r>
       <r>   -4.2775    1.0000 </r>
       <r>   -4.2570    1.0000 </r>
       <r>   -4.2142    1.0000 </r>
       <r>   -4.1338    1.0000 </r>
       <r>   -4.1165    1.0000 </r>
       <r>   -4.0929    1.0000 </r>
       <r>   -4.0025    1.0000 </r>
       <r>   -3.9619    1.0000 </r>
       <r>   -3.9197    1.0000 </r>
       <r>   -3.8564    1.0000 </r>
       <r>   -3.8093    1.0000 </r>
       <r>   -3.7645    1.0000 </r>
       <r>   -3.7075    1.0000 </r>
       <r>   -3.6505    1.0000 </r>
       <r>   -3.6323    1.0000 </r>
       <r>   -3.6082    1.0000 </r>
       <r>   -3.5635    1.0000 </r>
       <r>   -3.5334    1.0000 </r>
       <r>   -3.5025    1.0000 </r>
       <r>   -3.4451    1.0000 </r>
       <r>   -3.4014    1.0000 </r>
       <r>   -3.3935    1.0000 </r>
       <r>   -3.3878    1.0000 </r>
       <r>   -3.3155    1.0000 </r>
       <r>   -3.2686    1.0000 </r>
       <r>   -3.2269    1.0000 </r>
       <r>   -3.2059    1.0000 </r>
       <r>   -3.1713    1.0000 </r>
       <r>   -3.1472    1.0000 </r>
       <r>   -3.0973    1.0000 </r>
       <r>   -3.0748    1.0000 </r>
       <r>   -3.0715    1.0000 </r>
       <r>   -3.0416    1.0000 </r>
       <r>   -3.0019    1.0000 </r>
       <r>   -2.9893    1.0000 </r>
       <r>   -2.9537    1.0000 </r>
       <r>   -2.9005    1.0000 </r>
       <r>   -2.8681    1.0000 </r>
       <r>   -2.8595    1.0000 </r>
       <r>   -2.8214    1.0000 </r>
       <r>   -2.8159    1.0000 </r>
       <r>   -2.7852    1.0000 </r>
       <r>   -2.7542    1.0000 </r>
       <r>   -2.7405    1.0000 </r>
       <r>   -2.7137    1.0000 </r>
       <r>   -2.6924    1.0000 </r>
       <r>   -2.6773    1.0000 </r>
       <r>   -2.6176    1.0000 </r>
       <r>   -2.5944    1.0000 </r>
       <r>   -2.5734    1.0000 </r>
       <r>   -2.5458    1.0000 </r>
       <r>   -2.5265    1.0000 </r>
       <r>   -2.4998    1.0000 </r>
       <r>   -2.4622    1.0000 </r>
       <r>   -2.4260    1.0000 </r>
       <r>   -2.3851    1.0000 </r>
       <r>   -2.3436    1.0000 </r>
       <r>   -2.3019    1.0000 </r>
       <r>   -2.2602    1.0000 </r>
       <r>   -2.2291    1.0000 </r>
       <r>   -2.1988    1.0000 </r>
       <r>   -2.1432    1.0000 </r>
       <r>   -2.1095    1.0000 </r>
       <r>   -2.0775    1.0000 </r>
       <r>   -2.0253    1.0000 </r>
       <r>   -1.9787    1.0000 </r>
       <r>   -1.9031    1.0000 </r>
       <r>   -1.8827    1.0000 </r>
       <r>   -1.8737    1.0000 </r>
       <r>   -1.8171    1.0000 </r>
       <r>   -1.7822    1.0000 </r>
       <r>   -1.7688    1.0000 </r>
       <r>   -1.7452    1.0000 </r>
       <r>   -1.6734    1.0000 </r>
       <r>   -1.6622    1.0000 </r>
       <r>   -1.6377    1.0000 </r>
       <r>   -1.6012    1.0000 </r>
       <r>   -1.5578    1.0000 </r>
       <r>   -1.5250    1.0000 </r>
       <r>   -1.5031    1.0000 </r>
       <r>   -1.4915    1.0000 </r>
       <r>   -1.4737    1.0000 </r>
       <r>   -1.4508    1.0000 </r>
       <r>   -1.4297    1.0000 </r>
       <r>   -1.3628    1.0000 </r>
       <r>   -1.3584    1.0000 </r>
       <r>   -1.2809    1.0000 </r>
       <r>   -1.2683    1.0000 </r>
       <r>   -1.2236    1.0000 </r>
       <r>   -1.1784    1.0000 </r>
       <r>   -1.1692    1.0000 </r>
       <r>   -1.1167    1.0000 </r>
       <r>   -1.1035    1.0000 </r>
       <r>   -1.0841    1.0000 </r>
       <r>   -1.0748    1.0000 </r>
       <r>   -1.0517    1.0000 </r>
       <r>   -1.0265    1.0000 </r>
       <r>   -1.0209    1.0000 </r>
       <r>   -1.0172    1.0000 </r>
       <r>   -0.9902    1.0000 </r>
       <r>   -0.9613    1.0000 </r>
       <r>   -0.9507    1.0000 </r>
       <r>   -0.9142    1.0000 </r>
       <r>   -0.9001    1.0000 </r>
       <r>   -0.8924    1.0000 </r>
       <r>   -0.8772    1.0000 </r>
       <r>   -0.8514    1.0000 </r>
       <r>   -0.8435    1.0000 </r>
       <r>   -0.8230    1.0000 </r>
       <r>   -0.8183    1.0000 </r>
       <r>   -0.8060    1.0000 </r>
       <r>   -0.7832    1.0000 </r>
       <r>   -0.7583    1.0000 </r>
       <r>   -0.7264    1.0000 </r>
       <r>   -0.7230    1.0000 </r>
       <r>   -0.6808    1.0000 </r>
       <r>   -0.6713    1.0000 </r>
       <r>   -0.6606    1.0000 </r>
       <r>   -0.6475    1.0000 </r>
       <r>   -0.6295    1.0000 </r>
       <r>   -0.6184    1.0000 </r>
       <r>   -0.5830    1.0000 </r>
       <r>   -0.5781    1.0000 </r>
       <r>   -0.5639    1.0000 </r>
       <r>   -0.5534    1.0000 </r>
       <r>   -0.5502    1.0000 </r>
       <r>   -0.5440    1.0000 </r>
       <r>   -0.5329    1.0000 </r>
       <r>   -0.5266    1.0000 </r>
       <r>   -0.5102    1.0000 </r>
       <r>   -0.5060    1.0000 </r>
       <r>   -0.4906    1.0000 </r>
       <r>   -0.4605    1.0000 </r>
       <r>   -0.4576    1.0000 </r>
       <r>   -0.4516    1.0000 </r>
       <r>   -0.4411    1.0000 </r>
       <r>   -0.4206    1.0000 </r>
       <r>   -0.4196    1.0000 </r>
       <r>   -0.4046    1.0000 </r>
       <r>   -0.3969    1.0000 </r>
       <r>   -0.3844    1.0000 </r>
       <r>   -0.3763    1.0000 </r>
       <r>   -0.3700    1.0000 </r>
       <r>   -0.3606    1.0000 </r>
       <r>   -0.3465    1.0000 </r>
       <r>   -0.3393    1.0000 </r>
       <r>   -0.3166    1.0000 </r>
       <r>   -0.3031    1.0000 </r>
       <r>   -0.2938    1.0000 </r>
       <r>   -0.2882    1.0000 </r>
       <r>   -0.2820    1.0000 </r>
       <r>   -0.2648    1.0000 </r>
       <r>   -0.2611    1.0000 </r>
       <r>   -0.2420    1.0000 </r>
       <r>   -0.2388    1.0000 </r>
       <r>   -0.2212    1.0000 </r>
       <r>   -0.2001    1.0000 </r>
       <r>   -0.1941    1.0000 </r>
       <r>   -0.1808    1.0000 </r>
       <r>   -0.1672    1.0000 </r>
       <r>   -0.1530    1.0000 </r>
       <r>   -0.1292    1.0000 </r>
       <r>   -0.1026    1.0000 </r>
       <r>   -0.0948    1.0000 </r>
       <r>   -0.0730    1.0000 </r>
       <r>   -0.0661    1.0000 </r>
       <r>   -0.0473    1.0000 </r>
       <r>   -0.0313    1.0000 </r>
       <r>   -0.0131    1.0000 </r>
       <r>    0.0081    1.0000 </r>
       <r>    0.0235    1.0000 </r>
       <r>    0.0273    1.0000 </r>
       <r>    0.0372    1.0000 </r>
       <r>    0.0716    1.0000 </r>
       <r>    0.0837    1.0000 </r>
       <r>    0.1187    1.0000 </r>
       <r>    0.1457    1.0000 </r>
       <r>    0.1459    1.0000 </r>
       <r>    0.1523    1.0000 </r>
       <r>    0.1745    1.0000 </r>
       <r>    0.1781    1.0000 </r>
       <r>    0.2018    1.0000 </r>
       <r>    0.2119    1.0000 </r>
       <r>    0.2427    1.0000 </r>
       <r>    0.2673    1.0000 </r>
       <r>    0.2935    1.0000 </r>
       <r>    0.3081    1.0000 </r>
       <r>    0.3378    1.0000 </r>
       <r>    0.3607    1.0000 </r>
       <r>    0.3737    1.0000 </r>
       <r>    0.3824    1.0000 </r>
       <r>    0.3928    1.0000 </r>
       <r>    0.4074    1.0000 </r>
       <r>    0.4275    1.0000 </r>
       <r>    0.4377    1.0000 </r>
       <r>    0.4735    1.0000 </r>
       <r>    0.4936    1.0000 </r>
       <r>    0.5000    1.0000 </r>
       <r>    0.5344    1.0000 </r>
       <r>    0.5442    1.0000 </r>
       <r>    0.6001    1.0000 </r>
       <r>    0.6085    1.0000 </r>
       <r>    0.6141    1.0000 </r>
       <r>    0.6284    1.0000 </r>
       <r>    0.6397    1.0000 </r>
       <r>    0.6598    1.0000 </r>
       <r>    0.6919    1.0000 </r>
       <r>    0.7122    0.9999 </r>
       <r>    0.7424    0.9998 </r>
       <r>    0.7565    0.9997 </r>
       <r>    0.7710    0.9996 </r>
       <r>    0.8067    0.9990 </r>
       <r>    0.8276    0.9984 </r>
       <r>    0.8590    0.9968 </r>
       <r>    0.9004    0.9925 </r>
       <r>    0.9100    0.9910 </r>
       <r>    0.9571    0.9789 </r>
       <r>    0.9942    0.9616 </r>
       <r>    1.0112    0.9505 </r>
       <r>    1.0801    0.8775 </r>
       <r>    1.1142    0.8216 </r>
       <r>    1.1706    0.6993 </r>
       <r>    1.2018    0.6188 </r>
       <r>    1.2283    0.5457 </r>
       <r>    1.2845    0.3886 </r>
       <r>    1.3006    0.3459 </r>
       <r>    1.3358    0.2594 </r>
       <r>    1.3462    0.2361 </r>
       <r>    1.4050    0.1282 </r>
       <r>    1.4488    0.0743 </r>
       <r>    1.4673    0.0576 </r>
       <r>    1.5082    0.0311 </r>
       <r>    1.5219    0.0249 </r>
       <r>    1.5644    0.0118 </r>
       <r>    1.6032    0.0056 </r>
       <r>    1.6325    0.0030 </r>
       <r>    1.6672    0.0014 </r>
       <r>    1.7030    0.0006 </r>
       <r>    1.7194    0.0004 </r>
       <r>    1.7340    0.0003 </r>
       <r>    1.7773    0.0001 </r>
       <r>    1.8138    0.0000 </r>
       <r>    1.8549    0.0000 </r>
       <r>    1.8884    0.0000 </r>
       <r>    1.8979    0.0000 </r>
       <r>    1.9148    0.0000 </r>
       <r>    1.9272    0.0000 </r>
       <r>    1.9637    0.0000 </r>
       <r>    1.9861    0.0000 </r>
       <r>    2.0641    0.0000 </r>
       <r>    2.1270    0.0000 </r>
       <r>    2.1788    0.0000 </r>
       <r>    2.2056    0.0000 </r>
       <r>    2.2631    0.0000 </r>
       <r>    2.2882    0.0000 </r>
       <r>    2.3602    0.0000 </r>
       <r>    2.4025    0.0000 </r>
       <r>    2.4308    0.0000 </r>
       <r>    2.4558    0.0000 </r>
       <r>    2.5001    0.0000 </r>
       <r>    2.5121    0.0000 </r>
       <r>    2.8671    0.0000 </r>
       <r>    3.1756    0.0000 </r>
       <r>    3.4606    0.0000 </r>
       <r>    3.6920    0.0000 </r>
       <r>    4.3020    0.0000 </r>
       <r>    4.4164    0.0000 </r>
       <r>    4.4753    0.0000 </r>
       <r>    4.5195    0.0000 </r>
       <r>    4.7512    0.0000 </r>
       <r>    4.9213    0.0000 </r>
       <r>    4.9454    0.0000 </r>
       <r>    5.1259    0.0000 </r>
       <r>    5.1289    0.0000 </r>
       <r>    5.3460    0.0000 </r>
       <r>    5.3762    0.0000 </r>
       <r>    5.4883    0.0000 </r>
       <r>    5.5847    0.0000 </r>
       <r>    5.6188    0.0000 </r>
       <r>    5.7139    0.0000 </r>
       <r>    5.7514    0.0000 </r>
       <r>    5.8354    0.0000 </r>
       <r>    5.9997    0.0000 </r>
       <r>    6.1067    0.0000 </r>
       <r>    6.1568    0.0000 </r>
       <r>    6.2104    0.0000 </r>
       <r>    6.2574    0.0000 </r>
       <r>    6.3422    0.0000 </r>
       <r>    6.3971    0.0000 </r>
       <r>    6.4488    0.0000 </r>
       <r>    6.4691    0.0000 </r>
       <r>    6.6363    0.0000 </r>
       <r>    6.6402    0.0000 </r>
       <r>    6.7597    0.0000 </r>
       <r>    6.8127    0.0000 </r>
       <r>    6.8397    0.0000 </r>
       <r>    6.8839    0.0000 </r>
       <r>    6.8998    0.0000 </r>
       <r>    6.9395    0.0000 </r>
       <r>    7.0486    0.0000 </r>
       <r>    7.0675    0.0000 </r>
       <r>    7.1255    0.0000 </r>
       <r>    7.1597    0.0000 </r>
       <r>    7.2044    0.0000 </r>
       <r>    7.2443    0.0000 </r>
       <r>    7.2770    0.0000 </r>
       <r>    7.3118    0.0000 </r>
       <r>    7.3606    0.0000 </r>
      </set>
     </set>
    </set>
   </array>
  </eigenvalues>
  <separator name="orbital magnetization" >
   <v name="MAGDIPOLOUT">      0.00000000      0.00000000      0.00000000</v>
  </separator>
  <dos>
   <i name="efermi">      1.24450646 </i>
   <total>
    <array>
     <dimension dim="1">gridpoints</dimension>
     <dimension dim="2">spin</dimension>
     <field>energy</field>
     <field>total</field>
     <field>integrated</field>
     <set>
      <set comment="spin 1">
       <r>   -66.4757     0.0000     0.0000 </r>
       <r>   -66.2178     0.0000     0.0000 </r>
       <r>   -65.9600     0.0000     0.0000 </r>
       <r>   -65.7021     0.0000     0.0000 </r>
       <r>   -65.4443     0.0000     0.0000 </r>
       <r>   -65.1864     0.0000     0.0000 </r>
       <r>   -64.9286     0.0000     0.0000 </r>
       <r>   -64.6708     0.0000     0.0000 </r>
       <r>   -64.4129     0.0000     0.0000 </r>
       <r>   -64.1551     0.0000     0.0000 </r>
       <r>   -63.8972     0.0000     0.0000 </r>
       <r>   -63.6394     0.0000     0.0000 </r>
       <r>   -63.3816     0.0550     0.0142 </r>
       <r>   -63.1237    11.0037     2.8514 </r>
       <r>   -62.8659   164.4549    45.2546 </r>
       <r>   -62.6080   300.7295   122.7949 </r>
       <r>   -62.3502   154.3450   162.5914 </r>
       <r>   -62.0924    56.5427   177.1704 </r>
       <r>   -61.8345    50.5615   190.2072 </r>
       <r>   -61.5767    47.8572   202.5468 </r>
       <r>   -61.3188    37.5188   212.2206 </r>
       <r>   -61.0610    13.3660   215.6669 </r>
       <r>   -60.8032     1.2816   215.9974 </r>
       <r>   -60.5453     0.0101   216.0000 </r>
       <r>   -60.2875     0.0000   216.0000 </r>
       <r>   -60.0296     0.0000   216.0000 </r>
       <r>   -59.7718     0.0000   216.0000 </r>
       <r>   -59.5139     0.0000   216.0000 </r>
       <r>   -59.2561     0.0000   216.0000 </r>
       <r>   -58.9983     0.0000   216.0000 </r>
       <r>   -58.7404     0.0000   216.0000 </r>
       <r>   -58.4826     0.0000   216.0000 </r>
       <r>   -58.2247     0.0000   216.0000 </r>
       <r>   -57.9669     0.0000   216.0000 </r>
       <r>   -57.7091     0.0000   216.0000 </r>
       <r>   -57.4512     0.0000   216.0000 </r>
       <r>   -57.1934     0.0000   216.0000 </r>
       <r>   -56.9355     0.0000   216.0000 </r>
       <r>   -56.6777     0.0000   216.0000 </r>
       <r>   -56.4199     0.0000   216.0000 </r>
       <r>   -56.1620     0.0000   216.0000 </r>
       <r>   -55.9042     0.0000   216.0000 </r>
       <r>   -55.6463     0.0000   216.0000 </r>
       <r>   -55.3885     0.0000   216.0000 </r>
       <r>   -55.1307     0.0000   216.0000 </r>
       <r>   -54.8728     0.0000   216.0000 </r>
       <r>   -54.6150     0.0000   216.0000 </r>
       <r>   -54.3571     0.0000   216.0000 </r>
       <r>   -54.0993     0.0000   216.0000 </r>
       <r>   -53.8415     0.0000   216.0000 </r>
       <r>   -53.5836     0.0000   216.0000 </r>
       <r>   -53.3258     0.0000   216.0000 </r>
       <r>   -53.0679     0.0000   216.0000 </r>
       <r>   -52.8101     0.0000   216.0000 </r>
       <r>   -52.5522     0.0000   216.0000 </r>
       <r>   -52.2944     0.0000   216.0000 </r>
       <r>   -52.0366     0.0000   216.0000 </r>
       <r>   -51.7787     0.0000   216.0000 </r>
       <r>   -51.5209     0.0000   216.0000 </r>
       <r>   -51.2630     0.0000   216.0000 </r>
       <r>   -51.0052     0.0000   216.0000 </r>
       <r>   -50.7474     0.0000   216.0000 </r>
       <r>   -50.4895     0.0000   216.0000 </r>
       <r>   -50.2317     0.0000   216.0000 </r>
       <r>   -49.9738     0.0000   216.0000 </r>
       <r>   -49.7160     0.0000   216.0000 </r>
       <r>   -49.4582     0.0000   216.0000 </r>
       <r>   -49.2003     0.0000   216.0000 </r>
       <r>   -48.9425     0.0000   216.0000 </r>
       <r>   -48.6846     0.0000   216.0000 </r>
       <r>   -48.4268     0.0000   216.0000 </r>
       <r>   -48.1690     0.0000   216.0000 </r>
       <r>   -47.9111     0.0000   216.0000 </r>
       <r>   -47.6533     0.0000   216.0000 </r>
       <r>   -47.3954     0.0000   216.0000 </r>
       <r>   -47.1376     0.0000   216.0000 </r>
       <r>   -46.8797     0.0000   216.0000 </r>
       <r>   -46.6219     0.0000   216.0000 </r>
       <r>   -46.3641     0.0000   216.0000 </r>
       <r>   -46.1062     0.0000   216.0000 </r>
       <r>   -45.8484     0.0000   216.0000 </r>
       <r>   -45.5905     0.0000   216.0000 </r>
       <r>   -45.3327     0.0000   216.0000 </r>
       <r>   -45.0749     0.0000   216.0000 </r>
       <r>   -44.8170     0.0000   216.0000 </r>
       <r>   -44.5592     0.0000   216.0000 </r>
       <r>   -44.3013     0.0000   216.0000 </r>
       <r>   -44.0435     0.0000   216.0000 </r>
       <r>   -43.7857     0.0000   216.0000 </r>
       <r>   -43.5278     0.0000   216.0000 </r>
       <r>   -43.2700     0.0000   216.0000 </r>
       <r>   -43.0121     0.0000   216.0000 </r>
       <r>   -42.7543     0.0000   216.0000 </r>
       <r>   -42.4965     0.0000   216.0000 </r>
       <r>   -42.2386     0.0000   216.0000 </r>
       <r>   -41.9808     0.0000   216.0000 </r>
       <r>   -41.7229     0.0000   216.0000 </r>
       <r>   -41.4651     0.0000   216.0000 </r>
       <r>   -41.2073     0.0000   216.0000 </r>
       <r>   -40.9494     0.0000   216.0000 </r>
       <r>   -40.6916     0.0000   216.0000 </r>
       <r>   -40.4337     0.0000   216.0000 </r>
       <r>   -40.1759     0.0000   216.0000 </r>
       <r>   -39.9180     0.0000   216.0000 </r>
       <r>   -39.6602     0.0000   216.0000 </r>
       <r>   -39.4024     0.0000   216.0000 </r>
       <r>   -39.1445     0.0000   216.0000 </r>
       <r>   -38.8867     0.0000   216.0000 </r>
       <r>   -38.6288     0.0000   216.0000 </r>
       <r>   -38.3710     0.0000   216.0000 </r>
       <r>   -38.1132     0.0000   216.0000 </r>
       <r>   -37.8553     0.0000   216.0000 </r>
       <r>   -37.5975     0.0000   216.0000 </r>
       <r>   -37.3396     0.0000   216.0000 </r>
       <r>   -37.0818     0.0000   216.0000 </r>
       <r>   -36.8240     0.0000   216.0000 </r>
       <r>   -36.5661     0.0000   216.0000 </r>
       <r>   -36.3083     0.0000   216.0000 </r>
       <r>   -36.0504     0.0000   216.0000 </r>
       <r>   -35.7926     0.0000   216.0000 </r>
       <r>   -35.5348     0.0000   216.0000 </r>
       <r>   -35.2769     0.0000   216.0000 </r>
       <r>   -35.0191     0.0000   216.0000 </r>
       <r>   -34.7612     0.0000   216.0000 </r>
       <r>   -34.5034     0.0000   216.0000 </r>
       <r>   -34.2455     0.0000   216.0000 </r>
       <r>   -33.9877     0.0000   216.0000 </r>
       <r>   -33.7299     0.0000   216.0000 </r>
       <r>   -33.4720     0.0000   216.0000 </r>
       <r>   -33.2142     0.0000   216.0000 </r>
       <r>   -32.9563     0.0000   216.0000 </r>
       <r>   -32.6985     0.0000   216.0000 </r>
       <r>   -32.4407     0.0000   216.0000 </r>
       <r>   -32.1828     0.0000   216.0000 </r>
       <r>   -31.9250     0.0000   216.0000 </r>
       <r>   -31.6671     0.0000   216.0000 </r>
       <r>   -31.4093     0.0000   216.0000 </r>
       <r>   -31.1515     0.0000   216.0000 </r>
       <r>   -30.8936     0.0000   216.0000 </r>
       <r>   -30.6358     0.0000   216.0000 </r>
       <r>   -30.3779     0.0000   216.0000 </r>
       <r>   -30.1201     0.0000   216.0000 </r>
       <r>   -29.8623     0.0000   216.0000 </r>
       <r>   -29.6044     0.0000   216.0000 </r>
       <r>   -29.3466     0.0000   216.0000 </r>
       <r>   -29.0887     0.0000   216.0000 </r>
       <r>   -28.8309     0.0000   216.0000 </r>
       <r>   -28.5731     0.0000   216.0000 </r>
       <r>   -28.3152     0.0000   216.0000 </r>
       <r>   -28.0574     0.0000   216.0000 </r>
       <r>   -27.7995     0.0000   216.0000 </r>
       <r>   -27.5417     0.0000   216.0000 </r>
       <r>   -27.2838     0.0000   216.0000 </r>
       <r>   -27.0260     0.0000   216.0000 </r>
       <r>   -26.7682     0.0000   216.0000 </r>
       <r>   -26.5103     0.0000   216.0000 </r>
       <r>   -26.2525     0.0000   216.0000 </r>
       <r>   -25.9946     0.0000   216.0000 </r>
       <r>   -25.7368     0.0000   216.0000 </r>
       <r>   -25.4790     0.0000   216.0000 </r>
       <r>   -25.2211     0.0000   216.0000 </r>
       <r>   -24.9633     0.0000   216.0000 </r>
       <r>   -24.7054     0.0000   216.0000 </r>
       <r>   -24.4476     0.0000   216.0000 </r>
       <r>   -24.1898     0.0000   216.0000 </r>
       <r>   -23.9319     0.0000   216.0000 </r>
       <r>   -23.6741     0.0000   216.0000 </r>
       <r>   -23.4162     0.0000   216.0000 </r>
       <r>   -23.1584     0.0000   216.0000 </r>
       <r>   -22.9006     0.0000   216.0000 </r>
       <r>   -22.6427     0.0000   216.0000 </r>
       <r>   -22.3849     0.0000   216.0000 </r>
       <r>   -22.1270     0.0000   216.0000 </r>
       <r>   -21.8692     0.0000   216.0000 </r>
       <r>   -21.6113     0.0000   216.0000 </r>
       <r>   -21.3535     0.0000   216.0000 </r>
       <r>   -21.0957     0.0000   216.0000 </r>
       <r>   -20.8378     0.0000   216.0000 </r>
       <r>   -20.5800     0.0000   216.0000 </r>
       <r>   -20.3221     0.0000   216.0000 </r>
       <r>   -20.0643     0.0000   216.0000 </r>
       <r>   -19.8065     0.0000   216.0000 </r>
       <r>   -19.5486     0.0000   216.0000 </r>
       <r>   -19.2908     0.0000   216.0000 </r>
       <r>   -19.0329     0.0000   216.0000 </r>
       <r>   -18.7751     0.0000   216.0000 </r>
       <r>   -18.5173     0.0000   216.0000 </r>
       <r>   -18.2594     0.0000   216.0000 </r>
       <r>   -18.0016     0.0000   216.0000 </r>
       <r>   -17.7437     0.0000   216.0000 </r>
       <r>   -17.4859     0.0000   216.0000 </r>
       <r>   -17.2281     0.0000   216.0000 </r>
       <r>   -16.9702     0.0000   216.0000 </r>
       <r>   -16.7124     0.0000   216.0000 </r>
       <r>   -16.4545     0.0000   216.0000 </r>
       <r>   -16.1967     0.0000   216.0000 </r>
       <r>   -15.9389     0.0000   216.0000 </r>
       <r>   -15.6810     0.0000   216.0000 </r>
       <r>   -15.4232     0.0000   216.0000 </r>
       <r>   -15.1653     0.0000   216.0000 </r>
       <r>   -14.9075     0.0000   216.0000 </r>
       <r>   -14.6496     0.0040   216.0010 </r>
       <r>   -14.3918     0.5539   216.1438 </r>
       <r>   -14.1340     4.4155   217.2823 </r>
       <r>   -13.8761     2.7072   217.9804 </r>
       <r>   -13.6183     2.8640   218.7188 </r>
       <r>   -13.3604    16.2908   222.9193 </r>
       <r>   -13.1026    19.5303   227.9550 </r>
       <r>   -12.8448    22.5467   233.7684 </r>
       <r>   -12.5869    26.4572   240.5902 </r>
       <r>   -12.3291    33.9700   249.3490 </r>
       <r>   -12.0712    32.8311   257.8142 </r>
       <r>   -11.8134    28.0612   265.0496 </r>
       <r>   -11.5556    27.4663   272.1315 </r>
       <r>   -11.2977    20.6112   277.4459 </r>
       <r>   -11.0399    18.2899   282.1618 </r>
       <r>   -10.7820    13.5544   285.6567 </r>
       <r>   -10.5242     5.5270   287.0818 </r>
       <r>   -10.2664     3.3535   287.9464 </r>
       <r>   -10.0085     0.2071   287.9998 </r>
       <r>    -9.7507     0.0007   288.0000 </r>
       <r>    -9.4928     0.0000   288.0000 </r>
       <r>    -9.2350     0.0000   288.0000 </r>
       <r>    -8.9771     0.0000   288.0000 </r>
       <r>    -8.7193     0.0000   288.0000 </r>
       <r>    -8.4615     0.0000   288.0000 </r>
       <r>    -8.2036     0.0000   288.0000 </r>
       <r>    -7.9458     0.0000   288.0000 </r>
       <r>    -7.6879     0.0000   288.0000 </r>
       <r>    -7.4301     0.0000   288.0000 </r>
       <r>    -7.1723     0.0000   288.0000 </r>
       <r>    -6.9144     0.0000   288.0000 </r>
       <r>    -6.6566     0.0003   288.0001 </r>
       <r>    -6.3987     0.1634   288.0422 </r>
       <r>    -6.1409     4.4397   289.1870 </r>
       <r>    -5.8831     9.8886   291.7367 </r>
       <r>    -5.6252    11.6876   294.7502 </r>
       <r>    -5.3674    23.9124   300.9158 </r>
       <r>    -5.1095    38.6199   310.8736 </r>
       <r>    -4.8517    48.7349   323.4394 </r>
       <r>    -4.5939    45.2078   335.0958 </r>
       <r>    -4.3360    35.1829   344.1674 </r>
       <r>    -4.0782    39.4114   354.3293 </r>
       <r>    -3.8203    40.7428   364.8345 </r>
       <r>    -3.5625    48.2915   377.2860 </r>
       <r>    -3.3047    55.9778   391.7194 </r>
       <r>    -3.0468    63.2641   408.0314 </r>
       <r>    -2.7890    72.5749   426.7442 </r>
       <r>    -2.5311    72.7372   445.4988 </r>
       <r>    -2.2733    58.2530   460.5188 </r>
       <r>    -2.0154    49.7993   473.3591 </r>
       <r>    -1.7576    54.2857   487.3562 </r>
       <r>    -1.4998    65.0209   504.1212 </r>
       <r>    -1.2419    65.6267   521.0425 </r>
       <r>    -0.9841    86.9854   543.4709 </r>
       <r>    -0.7262   114.1340   572.8993 </r>
       <r>    -0.4684   147.0129   610.8052 </r>
       <r>    -0.2106   166.1796   653.6531 </r>
       <r>     0.0473   132.4278   687.7984 </r>
       <r>     0.3051   112.6076   716.8332 </r>
       <r>     0.5630   104.3399   743.7363 </r>
       <r>     0.8208    89.5942   766.8373 </r>
       <r>     1.0786    62.8920   783.0535 </r>
       <r>     1.3365    55.0423   797.2456 </r>
       <r>     1.5943    60.8131   812.9257 </r>
       <r>     1.8522    65.7419   829.8767 </r>
       <r>     2.1100    56.6819   844.4916 </r>
       <r>     2.3678    45.0052   856.0958 </r>
       <r>     2.6257    33.3173   864.6863 </r>
       <r>     2.8835     9.4058   867.1116 </r>
       <r>     3.1414     6.4722   868.7803 </r>
       <r>     3.3992     7.0122   870.5884 </r>
       <r>     3.6571     7.9536   872.6392 </r>
       <r>     3.9149     4.8525   873.8903 </r>
       <r>     4.1727     2.3323   874.4917 </r>
       <r>     4.4306    13.6922   878.0221 </r>
       <r>     4.6884    16.9981   882.4049 </r>
       <r>     4.9463    15.4209   886.3810 </r>
       <r>     5.2041    19.0982   891.3053 </r>
       <r>     5.4619    20.6731   896.6357 </r>
       <r>     5.7198    26.1847   903.3872 </r>
       <r>     5.9776    22.1597   909.1008 </r>
       <r>     6.2355    26.4392   915.9179 </r>
       <r>     6.4933    31.9516   924.1564 </r>
       <r>     6.7511    30.8081   932.0999 </r>
       <r>     7.0090    40.6821   942.5894 </r>
       <r>     7.2668    42.6218   953.5791 </r>
       <r>     7.5247    22.7859   959.4542 </r>
       <r>     7.7825     2.1002   959.9957 </r>
       <r>     8.0403     0.0166   960.0000 </r>
       <r>     8.2982     0.0000   960.0000 </r>
       <r>     8.5560     0.0000   960.0000 </r>
       <r>     8.8139     0.0000   960.0000 </r>
       <r>     9.0717     0.0000   960.0000 </r>
       <r>     9.3295     0.0000   960.0000 </r>
       <r>     9.5874     0.0000   960.0000 </r>
       <r>     9.8452     0.0000   960.0000 </r>
       <r>    10.1031     0.0000   960.0000 </r>
       <r>    10.3609     0.0000   960.0000 </r>
       <r>    10.6188     0.0000   960.0000 </r>
       <r>    10.8766     0.0000   960.0000 </r>
      </set>
     </set>
    </array>
   </total>
  </dos>
 </calculation>
 <structure name="finalpos" >
  <crystal>
   <varray name="basis" >
    <v>      10.40335375      -4.78920500       0.00000000 </v>
    <v>       0.00000000       9.57841000       0.00000000 </v>
    <v>       0.00000000       0.00000000      20.50076286 </v>
   </varray>
   <i name="volume">   2042.85156262 </i>
   <varray name="rec_basis" >
    <v>       0.09612285       0.00000000       0.00000000 </v>
    <v>       0.04806142       0.10440146       0.00000000 </v>
    <v>       0.00000000       0.00000000       0.04877867 </v>
   </varray>
  </crystal>
  <varray name="positions" >
   <v>       0.58044680       0.07437514       0.34941513 </v>
   <v>       0.76256081       0.16543215       0.22731652 </v>
   <v>       0.94467483       0.25648915       0.10521791 </v>
   <v>       0.39833278       0.98331813       0.47151374 </v>
   <v>       0.03518947       0.80174648       0.26801605 </v>
   <v>       0.21730349       0.89280348       0.14591744 </v>
   <v>       0.39941750       0.98386049       0.02381883 </v>
   <v>       0.67096144       0.61963246       0.51221327 </v>
   <v>       0.85307546       0.71068947       0.39011466 </v>
   <v>       0.12570412       0.34700380       0.43081420 </v>
   <v>       0.30781813       0.43806081       0.30871559 </v>
   <v>       0.48993215       0.52911781       0.18661698 </v>
   <v>       0.67204616       0.62017482       0.06451837 </v>
   <v>       0.23035801       0.03143375       0.40699537 </v>
   <v>       0.41247203       0.12249075       0.28489676 </v>
   <v>       0.59458604       0.21354776       0.16279815 </v>
   <v>       0.77670006       0.30460477       0.04069954 </v>
   <v>       0.04932872       0.94091910       0.08139907 </v>
   <v>       0.68510069       0.75880508       0.32559629 </v>
   <v>       0.86721470       0.84986209       0.20349768 </v>
   <v>       0.13984337       0.48617642       0.24419722 </v>
   <v>       0.32195738       0.57723343       0.12209861 </v>
   <v>       0.50407140       0.66829044       0.00000000 </v>
   <v>       0.95772935       0.39511942       0.36629583 </v>
   <v>       0.39833278       0.24752413       0.47151374 </v>
   <v>       0.58044680       0.33858114       0.34941513 </v>
   <v>       0.76256081       0.42963815       0.22731652 </v>
   <v>       0.94467483       0.52069515       0.10521791 </v>
   <v>       0.03518947       0.06595248       0.26801605 </v>
   <v>       0.21730349       0.15700948       0.14591744 </v>
   <v>       0.67096144       0.88383846       0.51221327 </v>
   <v>       0.85307546       0.97489547       0.39011466 </v>
   <v>       0.12570412       0.61120980       0.43081420 </v>
   <v>       0.30781813       0.70226681       0.30871559 </v>
   <v>       0.48993215       0.79332382       0.18661698 </v>
   <v>       0.67204616       0.88438082       0.06451837 </v>
   <v>       0.18441112       0.17667530       0.48070540 </v>
   <v>       0.36652513       0.26773231       0.35860679 </v>
   <v>       0.54863915       0.35878931       0.23650818 </v>
   <v>       0.73075316       0.44984632       0.11440957 </v>
   <v>       0.00338182       0.08616065       0.15510911 </v>
   <v>       0.18549584       0.17721766       0.03301050 </v>
   <v>       0.63915379       0.90404664       0.39930633 </v>
   <v>       0.82126781       0.99510365       0.27720772 </v>
   <v>       0.09389647       0.63141797       0.31790726 </v>
   <v>       0.27601049       0.72247498       0.19580864 </v>
   <v>       0.45812450       0.81353199       0.07371003 </v>
   <v>       0.91178246       0.54036097       0.44000587 </v>
   <v>       0.12675994       0.47963471       0.07446623 </v>
   <v>       0.58041790       0.20646369       0.44076206 </v>
   <v>       0.76253191       0.29752070       0.31866345 </v>
   <v>       0.94464593       0.38857770       0.19656484 </v>
   <v>       0.21727459       0.02489203       0.23726438 </v>
   <v>       0.39938860       0.11594904       0.11516577 </v>
   <v>       0.03516057       0.93383503       0.35936299 </v>
   <v>       0.85304656       0.84277802       0.48146160 </v>
   <v>       0.30778923       0.57014936       0.40006253 </v>
   <v>       0.48990325       0.66120636       0.27796392 </v>
   <v>       0.67201726       0.75226337       0.15586531 </v>
   <v>       0.85413128       0.84332038       0.03376670 </v>
   <v>       0.54863915       0.02235931       0.23650818 </v>
   <v>       0.73075316       0.11341632       0.11440957 </v>
   <v>       0.18441112       0.84024530       0.48070540 </v>
   <v>       0.36652513       0.93130231       0.35860679 </v>
   <v>       0.00338182       0.74973065       0.15510911 </v>
   <v>       0.18549584       0.84078766       0.03301050 </v>
   <v>       0.63915379       0.56761664       0.39930633 </v>
   <v>       0.82126781       0.65867365       0.27720772 </v>
   <v>       0.09389647       0.29498797       0.31790726 </v>
   <v>       0.27601049       0.38604498       0.19580864 </v>
   <v>       0.45812450       0.47710199       0.07371003 </v>
   <v>       0.91178246       0.20393097       0.44000587 </v>
  </varray>
 </structure>
</modeling>
