  72  72   0   0
  0.2729146E+02  0.1007973E-08  0.1007973E-08  0.2068350E-08  0.5000000E-15
  1.000000000000000E-004
  CAR 
 "Millerite NiS"                         
     11.05654265    -66.24011544  301      1.47152468      1.00000000
    -66.240  0.0000E+00  0.0000E+00
    -65.982  0.0000E+00  0.0000E+00
    -65.725  0.0000E+00  0.0000E+00
    -65.467  0.0000E+00  0.0000E+00
    -65.209  0.0000E+00  0.0000E+00
    -64.952  0.0000E+00  0.0000E+00
    -64.694  0.0000E+00  0.0000E+00
    -64.437  0.0000E+00  0.0000E+00
    -64.179  0.0000E+00  0.0000E+00
    -63.921  0.0000E+00  0.0000E+00
    -63.664  0.2391E-09  0.6160E-10
    -63.406  0.1622E-04  0.4180E-05
    -63.148  0.5586E-01  0.1440E-01
    -62.891  0.1116E+02  0.2890E+01
    -62.633  0.1653E+03  0.4549E+02
    -62.375  0.2951E+03  0.1215E+03
    -62.118  0.1383E+03  0.1572E+03
    -61.860  0.7164E+02  0.1756E+03
    -61.602  0.6883E+02  0.1934E+03
    -61.345  0.4905E+02  0.2060E+03
    -61.087  0.3092E+02  0.2140E+03
    -60.829  0.7558E+01  0.2159E+03
    -60.572  0.3151E+00  0.2160E+03
    -60.314  0.1045E-02  0.2160E+03
    -60.056  0.1695E-06  0.2160E+03
    -59.799  0.1127E-11  0.2160E+03
    -59.541  0.0000E+00  0.2160E+03
    -59.283  0.0000E+00  0.2160E+03
    -59.026  0.0000E+00  0.2160E+03
    -58.768  0.0000E+00  0.2160E+03
    -58.510  0.0000E+00  0.2160E+03
    -58.253  0.0000E+00  0.2160E+03
    -57.995  0.0000E+00  0.2160E+03
    -57.737  0.0000E+00  0.2160E+03
    -57.480  0.0000E+00  0.2160E+03
    -57.222  0.0000E+00  0.2160E+03
    -56.965  0.0000E+00  0.2160E+03
    -56.707  0.0000E+00  0.2160E+03
    -56.449  0.0000E+00  0.2160E+03
    -56.192  0.0000E+00  0.2160E+03
    -55.934  0.0000E+00  0.2160E+03
    -55.676  0.0000E+00  0.2160E+03
    -55.419  0.0000E+00  0.2160E+03
    -55.161  0.0000E+00  0.2160E+03
    -54.903  0.0000E+00  0.2160E+03
    -54.646  0.0000E+00  0.2160E+03
    -54.388  0.0000E+00  0.2160E+03
    -54.130  0.0000E+00  0.2160E+03
    -53.873  0.0000E+00  0.2160E+03
    -53.615  0.0000E+00  0.2160E+03
    -53.357  0.0000E+00  0.2160E+03
    -53.100  0.0000E+00  0.2160E+03
    -52.842  0.0000E+00  0.2160E+03
    -52.584  0.0000E+00  0.2160E+03
    -52.327  0.0000E+00  0.2160E+03
    -52.069  0.0000E+00  0.2160E+03
    -51.811  0.0000E+00  0.2160E+03
    -51.554  0.0000E+00  0.2160E+03
    -51.296  0.0000E+00  0.2160E+03
    -51.038  0.0000E+00  0.2160E+03
    -50.781  0.0000E+00  0.2160E+03
    -50.523  0.0000E+00  0.2160E+03
    -50.265  0.0000E+00  0.2160E+03
    -50.008  0.0000E+00  0.2160E+03
    -49.750  0.0000E+00  0.2160E+03
    -49.493  0.0000E+00  0.2160E+03
    -49.235  0.0000E+00  0.2160E+03
    -48.977  0.0000E+00  0.2160E+03
    -48.720  0.0000E+00  0.2160E+03
    -48.462  0.0000E+00  0.2160E+03
    -48.204  0.0000E+00  0.2160E+03
    -47.947  0.0000E+00  0.2160E+03
    -47.689  0.0000E+00  0.2160E+03
    -47.431  0.0000E+00  0.2160E+03
    -47.174  0.0000E+00  0.2160E+03
    -46.916  0.0000E+00  0.2160E+03
    -46.658  0.0000E+00  0.2160E+03
    -46.401  0.0000E+00  0.2160E+03
    -46.143  0.0000E+00  0.2160E+03
    -45.885  0.0000E+00  0.2160E+03
    -45.628  0.0000E+00  0.2160E+03
    -45.370  0.0000E+00  0.2160E+03
    -45.112  0.0000E+00  0.2160E+03
    -44.855  0.0000E+00  0.2160E+03
    -44.597  0.0000E+00  0.2160E+03
    -44.339  0.0000E+00  0.2160E+03
    -44.082  0.0000E+00  0.2160E+03
    -43.824  0.0000E+00  0.2160E+03
    -43.566  0.0000E+00  0.2160E+03
    -43.309  0.0000E+00  0.2160E+03
    -43.051  0.0000E+00  0.2160E+03
    -42.793  0.0000E+00  0.2160E+03
    -42.536  0.0000E+00  0.2160E+03
    -42.278  0.0000E+00  0.2160E+03
    -42.020  0.0000E+00  0.2160E+03
    -41.763  0.0000E+00  0.2160E+03
    -41.505  0.0000E+00  0.2160E+03
    -41.248  0.0000E+00  0.2160E+03
    -40.990  0.0000E+00  0.2160E+03
    -40.732  0.0000E+00  0.2160E+03
    -40.475  0.0000E+00  0.2160E+03
    -40.217  0.0000E+00  0.2160E+03
    -39.959  0.0000E+00  0.2160E+03
    -39.702  0.0000E+00  0.2160E+03
    -39.444  0.0000E+00  0.2160E+03
    -39.186  0.0000E+00  0.2160E+03
    -38.929  0.0000E+00  0.2160E+03
    -38.671  0.0000E+00  0.2160E+03
    -38.413  0.0000E+00  0.2160E+03
    -38.156  0.0000E+00  0.2160E+03
    -37.898  0.0000E+00  0.2160E+03
    -37.640  0.0000E+00  0.2160E+03
    -37.383  0.0000E+00  0.2160E+03
    -37.125  0.0000E+00  0.2160E+03
    -36.867  0.0000E+00  0.2160E+03
    -36.610  0.0000E+00  0.2160E+03
    -36.352  0.0000E+00  0.2160E+03
    -36.094  0.0000E+00  0.2160E+03
    -35.837  0.0000E+00  0.2160E+03
    -35.579  0.0000E+00  0.2160E+03
    -35.321  0.0000E+00  0.2160E+03
    -35.064  0.0000E+00  0.2160E+03
    -34.806  0.0000E+00  0.2160E+03
    -34.548  0.0000E+00  0.2160E+03
    -34.291  0.0000E+00  0.2160E+03
    -34.033  0.0000E+00  0.2160E+03
    -33.776  0.0000E+00  0.2160E+03
    -33.518  0.0000E+00  0.2160E+03
    -33.260  0.0000E+00  0.2160E+03
    -33.003  0.0000E+00  0.2160E+03
    -32.745  0.0000E+00  0.2160E+03
    -32.487  0.0000E+00  0.2160E+03
    -32.230  0.0000E+00  0.2160E+03
    -31.972  0.0000E+00  0.2160E+03
    -31.714  0.0000E+00  0.2160E+03
    -31.457  0.0000E+00  0.2160E+03
    -31.199  0.0000E+00  0.2160E+03
    -30.941  0.0000E+00  0.2160E+03
    -30.684  0.0000E+00  0.2160E+03
    -30.426  0.0000E+00  0.2160E+03
    -30.168  0.0000E+00  0.2160E+03
    -29.911  0.0000E+00  0.2160E+03
    -29.653  0.0000E+00  0.2160E+03
    -29.395  0.0000E+00  0.2160E+03
    -29.138  0.0000E+00  0.2160E+03
    -28.880  0.0000E+00  0.2160E+03
    -28.622  0.0000E+00  0.2160E+03
    -28.365  0.0000E+00  0.2160E+03
    -28.107  0.0000E+00  0.2160E+03
    -27.849  0.0000E+00  0.2160E+03
    -27.592  0.0000E+00  0.2160E+03
    -27.334  0.0000E+00  0.2160E+03
    -27.076  0.0000E+00  0.2160E+03
    -26.819  0.0000E+00  0.2160E+03
    -26.561  0.0000E+00  0.2160E+03
    -26.304  0.0000E+00  0.2160E+03
    -26.046  0.0000E+00  0.2160E+03
    -25.788  0.0000E+00  0.2160E+03
    -25.531  0.0000E+00  0.2160E+03
    -25.273  0.0000E+00  0.2160E+03
    -25.015  0.0000E+00  0.2160E+03
    -24.758  0.0000E+00  0.2160E+03
    -24.500  0.0000E+00  0.2160E+03
    -24.242  0.0000E+00  0.2160E+03
    -23.985  0.0000E+00  0.2160E+03
    -23.727  0.0000E+00  0.2160E+03
    -23.469  0.0000E+00  0.2160E+03
    -23.212  0.0000E+00  0.2160E+03
    -22.954  0.0000E+00  0.2160E+03
    -22.696  0.0000E+00  0.2160E+03
    -22.439  0.0000E+00  0.2160E+03
    -22.181  0.0000E+00  0.2160E+03
    -21.923  0.0000E+00  0.2160E+03
    -21.666  0.0000E+00  0.2160E+03
    -21.408  0.0000E+00  0.2160E+03
    -21.150  0.0000E+00  0.2160E+03
    -20.893  0.0000E+00  0.2160E+03
    -20.635  0.0000E+00  0.2160E+03
    -20.377  0.0000E+00  0.2160E+03
    -20.120  0.0000E+00  0.2160E+03
    -19.862  0.0000E+00  0.2160E+03
    -19.604  0.0000E+00  0.2160E+03
    -19.347  0.0000E+00  0.2160E+03
    -19.089  0.0000E+00  0.2160E+03
    -18.831  0.0000E+00  0.2160E+03
    -18.574  0.0000E+00  0.2160E+03
    -18.316  0.0000E+00  0.2160E+03
    -18.059  0.0000E+00  0.2160E+03
    -17.801  0.0000E+00  0.2160E+03
    -17.543  0.0000E+00  0.2160E+03
    -17.286  0.0000E+00  0.2160E+03
    -17.028  0.0000E+00  0.2160E+03
    -16.770  0.0000E+00  0.2160E+03
    -16.513  0.0000E+00  0.2160E+03
    -16.255  0.0000E+00  0.2160E+03
    -15.997  0.0000E+00  0.2160E+03
    -15.740  0.0000E+00  0.2160E+03
    -15.482  0.0000E+00  0.2160E+03
    -15.224  0.0000E+00  0.2160E+03
    -14.967  0.2821E-11  0.2160E+03
    -14.709  0.3369E-06  0.2160E+03
    -14.451  0.1610E-02  0.2160E+03
    -14.194  0.3381E+00  0.2161E+03
    -13.936  0.3892E+01  0.2171E+03
    -13.678  0.3358E+01  0.2180E+03
    -13.421  0.2125E+01  0.2185E+03
    -13.163  0.1211E+02  0.2216E+03
    -12.905  0.1987E+02  0.2267E+03
    -12.648  0.2455E+02  0.2331E+03
    -12.390  0.2909E+02  0.2406E+03
    -12.132  0.2757E+02  0.2477E+03
    -11.875  0.3591E+02  0.2569E+03
    -11.617  0.3050E+02  0.2648E+03
    -11.359  0.2636E+02  0.2716E+03
    -11.102  0.2069E+02  0.2769E+03
    -10.844  0.2436E+02  0.2832E+03
    -10.587  0.1051E+02  0.2859E+03
    -10.329  0.2512E+01  0.2865E+03
    -10.071  0.4807E+01  0.2878E+03
     -9.814  0.8961E+00  0.2880E+03
     -9.556  0.1002E-01  0.2880E+03
     -9.298  0.5161E-05  0.2880E+03
     -9.041  0.1083E-09  0.2880E+03
     -8.783  0.0000E+00  0.2880E+03
     -8.525  0.0000E+00  0.2880E+03
     -8.268  0.0000E+00  0.2880E+03
     -8.010  0.0000E+00  0.2880E+03
     -7.752  0.0000E+00  0.2880E+03
     -7.495  0.0000E+00  0.2880E+03
     -7.237  0.0000E+00  0.2880E+03
     -6.979  0.0000E+00  0.2880E+03
     -6.722  0.2130E-11  0.2880E+03
     -6.464  0.2960E-06  0.2880E+03
     -6.206  0.1746E-02  0.2880E+03
     -5.949  0.4990E+00  0.2881E+03
     -5.691  0.8837E+01  0.2904E+03
     -5.433  0.1695E+02  0.2948E+03
     -5.176  0.1997E+02  0.2999E+03
     -4.918  0.3462E+02  0.3088E+03
     -4.660  0.4855E+02  0.3213E+03
     -4.403  0.4911E+02  0.3340E+03
     -4.145  0.3981E+02  0.3443E+03
     -3.887  0.3640E+02  0.3536E+03
     -3.630  0.3880E+02  0.3636E+03
     -3.372  0.4099E+02  0.3742E+03
     -3.115  0.5198E+02  0.3876E+03
     -2.857  0.7173E+02  0.4061E+03
     -2.599  0.7514E+02  0.4254E+03
     -2.342  0.7438E+02  0.4446E+03
     -2.084  0.5803E+02  0.4596E+03
     -1.826  0.4873E+02  0.4721E+03
     -1.569  0.5056E+02  0.4851E+03
     -1.311  0.5451E+02  0.4992E+03
     -1.053  0.5858E+02  0.5143E+03
     -0.796  0.8254E+02  0.5355E+03
     -0.538  0.1094E+03  0.5637E+03
     -0.280  0.1536E+03  0.6033E+03
     -0.023  0.1753E+03  0.6485E+03
      0.235  0.1496E+03  0.6870E+03
      0.493  0.1121E+03  0.7159E+03
      0.750  0.1007E+03  0.7418E+03
      1.008  0.8819E+02  0.7645E+03
      1.266  0.6362E+02  0.7809E+03
      1.523  0.5400E+02  0.7949E+03
      1.781  0.5810E+02  0.8098E+03
      2.039  0.5898E+02  0.8250E+03
      2.296  0.5954E+02  0.8404E+03
      2.554  0.6010E+02  0.8558E+03
      2.812  0.3297E+02  0.8643E+03
      3.069  0.1334E+02  0.8678E+03
      3.327  0.7099E+01  0.8696E+03
      3.585  0.5086E+01  0.8709E+03
      3.842  0.4901E+01  0.8722E+03
      4.100  0.5660E+01  0.8736E+03
      4.357  0.6412E+01  0.8753E+03
      4.615  0.9658E+01  0.8778E+03
      4.873  0.1795E+02  0.8824E+03
      5.130  0.1809E+02  0.8871E+03
      5.388  0.1365E+02  0.8906E+03
      5.646  0.1768E+02  0.8951E+03
      5.903  0.2096E+02  0.9005E+03
      6.161  0.2755E+02  0.9076E+03
      6.419  0.2858E+02  0.9150E+03
      6.676  0.2958E+02  0.9226E+03
      6.934  0.3536E+02  0.9317E+03
      7.192  0.4125E+02  0.9424E+03
      7.449  0.4212E+02  0.9532E+03
      7.707  0.2387E+02  0.9594E+03
      7.965  0.2459E+01  0.9600E+03
      8.222  0.2029E-01  0.9600E+03
      8.480  0.8958E-05  0.9600E+03
      8.738  0.1752E-09  0.9600E+03
      8.995  0.0000E+00  0.9600E+03
      9.253  0.0000E+00  0.9600E+03
      9.511  0.0000E+00  0.9600E+03
      9.768  0.0000E+00  0.9600E+03
     10.026  0.0000E+00  0.9600E+03
     10.284  0.0000E+00  0.9600E+03
     10.541  0.0000E+00  0.9600E+03
     10.799  0.0000E+00  0.9600E+03
     11.057  0.0000E+00  0.9600E+03
