  72  72   0   0
  0.2729146E+02  0.1007973E-08  0.1007973E-08  0.2068350E-08  0.5000000E-15
  1.000000000000000E-004
  CAR 
 "Millerite NiS"                         
     11.06497800    -66.96564029  301      1.41297358      1.00000000
    -66.966  0.0000E+00  0.0000E+00
    -66.706  0.0000E+00  0.0000E+00
    -66.445  0.0000E+00  0.0000E+00
    -66.185  0.0000E+00  0.0000E+00
    -65.925  0.0000E+00  0.0000E+00
    -65.665  0.0000E+00  0.0000E+00
    -65.405  0.0000E+00  0.0000E+00
    -65.145  0.0000E+00  0.0000E+00
    -64.885  0.0000E+00  0.0000E+00
    -64.625  0.0000E+00  0.0000E+00
    -64.365  0.8705E-10  0.2264E-10
    -64.105  0.4807E-05  0.1250E-05
    -63.844  0.1060E-01  0.2758E-02
    -63.584  0.1362E+01  0.3571E+00
    -63.324  0.2676E+02  0.7316E+01
    -63.064  0.1236E+03  0.3948E+02
    -62.804  0.2220E+03  0.9723E+02
    -62.544  0.2752E+03  0.1688E+03
    -62.284  0.1326E+03  0.2033E+03
    -62.024  0.2971E+02  0.2110E+03
    -61.764  0.1539E+02  0.2150E+03
    -61.503  0.3578E+01  0.2160E+03
    -61.243  0.9532E-01  0.2160E+03
    -60.983  0.1511E-03  0.2160E+03
    -60.723  0.1007E-07  0.2160E+03
    -60.463  0.2561E-13  0.2160E+03
    -60.203  0.0000E+00  0.2160E+03
    -59.943  0.0000E+00  0.2160E+03
    -59.683  0.0000E+00  0.2160E+03
    -59.423  0.0000E+00  0.2160E+03
    -59.163  0.0000E+00  0.2160E+03
    -58.902  0.0000E+00  0.2160E+03
    -58.642  0.0000E+00  0.2160E+03
    -58.382  0.0000E+00  0.2160E+03
    -58.122  0.0000E+00  0.2160E+03
    -57.862  0.0000E+00  0.2160E+03
    -57.602  0.0000E+00  0.2160E+03
    -57.342  0.0000E+00  0.2160E+03
    -57.082  0.0000E+00  0.2160E+03
    -56.822  0.0000E+00  0.2160E+03
    -56.562  0.0000E+00  0.2160E+03
    -56.301  0.0000E+00  0.2160E+03
    -56.041  0.0000E+00  0.2160E+03
    -55.781  0.0000E+00  0.2160E+03
    -55.521  0.0000E+00  0.2160E+03
    -55.261  0.0000E+00  0.2160E+03
    -55.001  0.0000E+00  0.2160E+03
    -54.741  0.0000E+00  0.2160E+03
    -54.481  0.0000E+00  0.2160E+03
    -54.221  0.0000E+00  0.2160E+03
    -53.961  0.0000E+00  0.2160E+03
    -53.700  0.0000E+00  0.2160E+03
    -53.440  0.0000E+00  0.2160E+03
    -53.180  0.0000E+00  0.2160E+03
    -52.920  0.0000E+00  0.2160E+03
    -52.660  0.0000E+00  0.2160E+03
    -52.400  0.0000E+00  0.2160E+03
    -52.140  0.0000E+00  0.2160E+03
    -51.880  0.0000E+00  0.2160E+03
    -51.620  0.0000E+00  0.2160E+03
    -51.360  0.0000E+00  0.2160E+03
    -51.099  0.0000E+00  0.2160E+03
    -50.839  0.0000E+00  0.2160E+03
    -50.579  0.0000E+00  0.2160E+03
    -50.319  0.0000E+00  0.2160E+03
    -50.059  0.0000E+00  0.2160E+03
    -49.799  0.0000E+00  0.2160E+03
    -49.539  0.0000E+00  0.2160E+03
    -49.279  0.0000E+00  0.2160E+03
    -49.019  0.0000E+00  0.2160E+03
    -48.758  0.0000E+00  0.2160E+03
    -48.498  0.0000E+00  0.2160E+03
    -48.238  0.0000E+00  0.2160E+03
    -47.978  0.0000E+00  0.2160E+03
    -47.718  0.0000E+00  0.2160E+03
    -47.458  0.0000E+00  0.2160E+03
    -47.198  0.0000E+00  0.2160E+03
    -46.938  0.0000E+00  0.2160E+03
    -46.678  0.0000E+00  0.2160E+03
    -46.418  0.0000E+00  0.2160E+03
    -46.157  0.0000E+00  0.2160E+03
    -45.897  0.0000E+00  0.2160E+03
    -45.637  0.0000E+00  0.2160E+03
    -45.377  0.0000E+00  0.2160E+03
    -45.117  0.0000E+00  0.2160E+03
    -44.857  0.0000E+00  0.2160E+03
    -44.597  0.0000E+00  0.2160E+03
    -44.337  0.0000E+00  0.2160E+03
    -44.077  0.0000E+00  0.2160E+03
    -43.817  0.0000E+00  0.2160E+03
    -43.556  0.0000E+00  0.2160E+03
    -43.296  0.0000E+00  0.2160E+03
    -43.036  0.0000E+00  0.2160E+03
    -42.776  0.0000E+00  0.2160E+03
    -42.516  0.0000E+00  0.2160E+03
    -42.256  0.0000E+00  0.2160E+03
    -41.996  0.0000E+00  0.2160E+03
    -41.736  0.0000E+00  0.2160E+03
    -41.476  0.0000E+00  0.2160E+03
    -41.216  0.0000E+00  0.2160E+03
    -40.955  0.0000E+00  0.2160E+03
    -40.695  0.0000E+00  0.2160E+03
    -40.435  0.0000E+00  0.2160E+03
    -40.175  0.0000E+00  0.2160E+03
    -39.915  0.0000E+00  0.2160E+03
    -39.655  0.0000E+00  0.2160E+03
    -39.395  0.0000E+00  0.2160E+03
    -39.135  0.0000E+00  0.2160E+03
    -38.875  0.0000E+00  0.2160E+03
    -38.615  0.0000E+00  0.2160E+03
    -38.354  0.0000E+00  0.2160E+03
    -38.094  0.0000E+00  0.2160E+03
    -37.834  0.0000E+00  0.2160E+03
    -37.574  0.0000E+00  0.2160E+03
    -37.314  0.0000E+00  0.2160E+03
    -37.054  0.0000E+00  0.2160E+03
    -36.794  0.0000E+00  0.2160E+03
    -36.534  0.0000E+00  0.2160E+03
    -36.274  0.0000E+00  0.2160E+03
    -36.013  0.0000E+00  0.2160E+03
    -35.753  0.0000E+00  0.2160E+03
    -35.493  0.0000E+00  0.2160E+03
    -35.233  0.0000E+00  0.2160E+03
    -34.973  0.0000E+00  0.2160E+03
    -34.713  0.0000E+00  0.2160E+03
    -34.453  0.0000E+00  0.2160E+03
    -34.193  0.0000E+00  0.2160E+03
    -33.933  0.0000E+00  0.2160E+03
    -33.673  0.0000E+00  0.2160E+03
    -33.412  0.0000E+00  0.2160E+03
    -33.152  0.0000E+00  0.2160E+03
    -32.892  0.0000E+00  0.2160E+03
    -32.632  0.0000E+00  0.2160E+03
    -32.372  0.0000E+00  0.2160E+03
    -32.112  0.0000E+00  0.2160E+03
    -31.852  0.0000E+00  0.2160E+03
    -31.592  0.0000E+00  0.2160E+03
    -31.332  0.0000E+00  0.2160E+03
    -31.072  0.0000E+00  0.2160E+03
    -30.811  0.0000E+00  0.2160E+03
    -30.551  0.0000E+00  0.2160E+03
    -30.291  0.0000E+00  0.2160E+03
    -30.031  0.0000E+00  0.2160E+03
    -29.771  0.0000E+00  0.2160E+03
    -29.511  0.0000E+00  0.2160E+03
    -29.251  0.0000E+00  0.2160E+03
    -28.991  0.0000E+00  0.2160E+03
    -28.731  0.0000E+00  0.2160E+03
    -28.471  0.0000E+00  0.2160E+03
    -28.210  0.0000E+00  0.2160E+03
    -27.950  0.0000E+00  0.2160E+03
    -27.690  0.0000E+00  0.2160E+03
    -27.430  0.0000E+00  0.2160E+03
    -27.170  0.0000E+00  0.2160E+03
    -26.910  0.0000E+00  0.2160E+03
    -26.650  0.0000E+00  0.2160E+03
    -26.390  0.0000E+00  0.2160E+03
    -26.130  0.0000E+00  0.2160E+03
    -25.870  0.0000E+00  0.2160E+03
    -25.609  0.0000E+00  0.2160E+03
    -25.349  0.0000E+00  0.2160E+03
    -25.089  0.0000E+00  0.2160E+03
    -24.829  0.0000E+00  0.2160E+03
    -24.569  0.0000E+00  0.2160E+03
    -24.309  0.0000E+00  0.2160E+03
    -24.049  0.0000E+00  0.2160E+03
    -23.789  0.0000E+00  0.2160E+03
    -23.529  0.0000E+00  0.2160E+03
    -23.268  0.0000E+00  0.2160E+03
    -23.008  0.0000E+00  0.2160E+03
    -22.748  0.0000E+00  0.2160E+03
    -22.488  0.0000E+00  0.2160E+03
    -22.228  0.0000E+00  0.2160E+03
    -21.968  0.0000E+00  0.2160E+03
    -21.708  0.0000E+00  0.2160E+03
    -21.448  0.0000E+00  0.2160E+03
    -21.188  0.0000E+00  0.2160E+03
    -20.928  0.0000E+00  0.2160E+03
    -20.667  0.0000E+00  0.2160E+03
    -20.407  0.0000E+00  0.2160E+03
    -20.147  0.0000E+00  0.2160E+03
    -19.887  0.0000E+00  0.2160E+03
    -19.627  0.0000E+00  0.2160E+03
    -19.367  0.0000E+00  0.2160E+03
    -19.107  0.0000E+00  0.2160E+03
    -18.847  0.0000E+00  0.2160E+03
    -18.587  0.0000E+00  0.2160E+03
    -18.327  0.0000E+00  0.2160E+03
    -18.066  0.0000E+00  0.2160E+03
    -17.806  0.0000E+00  0.2160E+03
    -17.546  0.0000E+00  0.2160E+03
    -17.286  0.0000E+00  0.2160E+03
    -17.026  0.0000E+00  0.2160E+03
    -16.766  0.0000E+00  0.2160E+03
    -16.506  0.0000E+00  0.2160E+03
    -16.246  0.2988E-14  0.2160E+03
    -15.986  0.1944E-08  0.2160E+03
    -15.726  0.4602E-04  0.2160E+03
    -15.465  0.4271E-01  0.2160E+03
    -15.205  0.1820E+01  0.2165E+03
    -14.945  0.5219E+01  0.2178E+03
    -14.685  0.5027E+01  0.2191E+03
    -14.425  0.5075E+01  0.2205E+03
    -14.165  0.7953E+01  0.2225E+03
    -13.905  0.1850E+02  0.2274E+03
    -13.645  0.1764E+02  0.2319E+03
    -13.385  0.2203E+02  0.2377E+03
    -13.125  0.2475E+02  0.2441E+03
    -12.864  0.2585E+02  0.2508E+03
    -12.604  0.2660E+02  0.2578E+03
    -12.344  0.2326E+02  0.2638E+03
    -12.084  0.3337E+02  0.2725E+03
    -11.824  0.3072E+02  0.2805E+03
    -11.564  0.1896E+02  0.2854E+03
    -11.304  0.6365E+01  0.2871E+03
    -11.044  0.3412E+01  0.2879E+03
    -10.784  0.2093E+00  0.2880E+03
    -10.523  0.6498E-03  0.2880E+03
    -10.263  0.8217E-07  0.2880E+03
    -10.003  0.3876E-12  0.2880E+03
     -9.743  0.0000E+00  0.2880E+03
     -9.483  0.0000E+00  0.2880E+03
     -9.223  0.0000E+00  0.2880E+03
     -8.963  0.0000E+00  0.2880E+03
     -8.703  0.0000E+00  0.2880E+03
     -8.443  0.0000E+00  0.2880E+03
     -8.183  0.6829E-14  0.2880E+03
     -7.922  0.3662E-08  0.2880E+03
     -7.662  0.7251E-04  0.2880E+03
     -7.402  0.5661E-01  0.2880E+03
     -7.142  0.2079E+01  0.2886E+03
     -6.882  0.6272E+01  0.2902E+03
     -6.622  0.9234E+01  0.2926E+03
     -6.362  0.1722E+02  0.2971E+03
     -6.102  0.2416E+02  0.3034E+03
     -5.842  0.2827E+02  0.3107E+03
     -5.582  0.4082E+02  0.3213E+03
     -5.321  0.4435E+02  0.3329E+03
     -5.061  0.4423E+02  0.3444E+03
     -4.801  0.4109E+02  0.3550E+03
     -4.541  0.3964E+02  0.3654E+03
     -4.281  0.4467E+02  0.3770E+03
     -4.021  0.4773E+02  0.3894E+03
     -3.761  0.5568E+02  0.4039E+03
     -3.501  0.6164E+02  0.4199E+03
     -3.241  0.6341E+02  0.4364E+03
     -2.981  0.6247E+02  0.4527E+03
     -2.720  0.5443E+02  0.4668E+03
     -2.460  0.4829E+02  0.4794E+03
     -2.200  0.4575E+02  0.4913E+03
     -1.940  0.5356E+02  0.5052E+03
     -1.680  0.6009E+02  0.5208E+03
     -1.420  0.6964E+02  0.5389E+03
     -1.160  0.9278E+02  0.5631E+03
     -0.900  0.1029E+03  0.5898E+03
     -0.640  0.1201E+03  0.6211E+03
     -0.380  0.1352E+03  0.6562E+03
     -0.119  0.1322E+03  0.6906E+03
      0.141  0.1028E+03  0.7174E+03
      0.401  0.7520E+02  0.7369E+03
      0.661  0.6345E+02  0.7534E+03
      0.921  0.5498E+02  0.7677E+03
      1.181  0.4937E+02  0.7806E+03
      1.441  0.4920E+02  0.7934E+03
      1.701  0.4599E+02  0.8053E+03
      1.961  0.4718E+02  0.8176E+03
      2.222  0.5218E+02  0.8312E+03
      2.482  0.4858E+02  0.8438E+03
      2.742  0.3595E+02  0.8532E+03
      3.002  0.2602E+02  0.8599E+03
      3.262  0.1432E+02  0.8637E+03
      3.522  0.1298E+01  0.8640E+03
      3.782  0.6331E+00  0.8642E+03
      4.042  0.4579E+01  0.8654E+03
      4.302  0.4646E+01  0.8666E+03
      4.562  0.9695E+01  0.8691E+03
      4.823  0.9740E+01  0.8716E+03
      5.083  0.1613E+02  0.8758E+03
      5.343  0.1065E+02  0.8786E+03
      5.603  0.2143E+02  0.8842E+03
      5.863  0.2834E+02  0.8915E+03
      6.123  0.2765E+02  0.8987E+03
      6.383  0.2803E+02  0.9060E+03
      6.643  0.3381E+02  0.9148E+03
      6.903  0.3796E+02  0.9247E+03
      7.163  0.4257E+02  0.9358E+03
      7.424  0.4020E+02  0.9462E+03
      7.684  0.2016E+02  0.9514E+03
      7.944  0.2099E+01  0.9520E+03
      8.204  0.1729E-01  0.9520E+03
      8.464  0.7001E-05  0.9520E+03
      8.724  0.1151E-09  0.9520E+03
      8.984  0.0000E+00  0.9520E+03
      9.244  0.0000E+00  0.9520E+03
      9.504  0.0000E+00  0.9520E+03
      9.764  0.0000E+00  0.9520E+03
     10.025  0.0000E+00  0.9520E+03
     10.285  0.0000E+00  0.9520E+03
     10.545  0.0000E+00  0.9520E+03
     10.805  0.0000E+00  0.9520E+03
     11.065  0.0000E+00  0.9520E+03
