  96  96   0   0
  0.2109074E+02  0.6278560E-09  0.1125646E-08  0.2915682E-08  0.5000000E-15
  1.000000000000000E-004
  CAR 
 "Millerite NiS"                         
     12.92624564    -65.24504247  301      3.39611020      1.00000000
    -65.245  0.0000E+00  0.0000E+00
    -64.984  0.0000E+00  0.0000E+00
    -64.724  0.0000E+00  0.0000E+00
    -64.463  0.0000E+00  0.0000E+00
    -64.203  0.0000E+00  0.0000E+00
    -63.942  0.0000E+00  0.0000E+00
    -63.682  0.0000E+00  0.0000E+00
    -63.421  0.0000E+00  0.0000E+00
    -63.160  0.0000E+00  0.0000E+00
    -62.900  0.0000E+00  0.0000E+00
    -62.639  0.1300E-09  0.3387E-10
    -62.379  0.7787E-05  0.2029E-05
    -62.118  0.1772E-01  0.4619E-02
    -61.858  0.1754E+01  0.4615E+00
    -61.597  0.1302E+02  0.3855E+01
    -61.336  0.4750E+02  0.1623E+02
    -61.076  0.1994E+03  0.6819E+02
    -60.815  0.3686E+03  0.1642E+03
    -60.555  0.2678E+03  0.2340E+03
    -60.294  0.1131E+03  0.2635E+03
    -60.034  0.6674E+02  0.2809E+03
    -59.773  0.2407E+02  0.2872E+03
    -59.512  0.3171E+01  0.2880E+03
    -59.252  0.5103E-01  0.2880E+03
    -58.991  0.3959E-04  0.2880E+03
    -58.731  0.1186E-08  0.2880E+03
    -58.470  0.8521E-15  0.2880E+03
    -58.210  0.0000E+00  0.2880E+03
    -57.949  0.0000E+00  0.2880E+03
    -57.688  0.0000E+00  0.2880E+03
    -57.428  0.0000E+00  0.2880E+03
    -57.167  0.0000E+00  0.2880E+03
    -56.907  0.0000E+00  0.2880E+03
    -56.646  0.0000E+00  0.2880E+03
    -56.386  0.0000E+00  0.2880E+03
    -56.125  0.0000E+00  0.2880E+03
    -55.864  0.0000E+00  0.2880E+03
    -55.604  0.0000E+00  0.2880E+03
    -55.343  0.0000E+00  0.2880E+03
    -55.083  0.0000E+00  0.2880E+03
    -54.822  0.0000E+00  0.2880E+03
    -54.562  0.0000E+00  0.2880E+03
    -54.301  0.0000E+00  0.2880E+03
    -54.040  0.0000E+00  0.2880E+03
    -53.780  0.0000E+00  0.2880E+03
    -53.519  0.0000E+00  0.2880E+03
    -53.259  0.0000E+00  0.2880E+03
    -52.998  0.0000E+00  0.2880E+03
    -52.738  0.0000E+00  0.2880E+03
    -52.477  0.0000E+00  0.2880E+03
    -52.216  0.0000E+00  0.2880E+03
    -51.956  0.0000E+00  0.2880E+03
    -51.695  0.0000E+00  0.2880E+03
    -51.435  0.0000E+00  0.2880E+03
    -51.174  0.0000E+00  0.2880E+03
    -50.914  0.0000E+00  0.2880E+03
    -50.653  0.0000E+00  0.2880E+03
    -50.392  0.0000E+00  0.2880E+03
    -50.132  0.0000E+00  0.2880E+03
    -49.871  0.0000E+00  0.2880E+03
    -49.611  0.0000E+00  0.2880E+03
    -49.350  0.0000E+00  0.2880E+03
    -49.090  0.0000E+00  0.2880E+03
    -48.829  0.0000E+00  0.2880E+03
    -48.569  0.0000E+00  0.2880E+03
    -48.308  0.0000E+00  0.2880E+03
    -48.047  0.0000E+00  0.2880E+03
    -47.787  0.0000E+00  0.2880E+03
    -47.526  0.0000E+00  0.2880E+03
    -47.266  0.0000E+00  0.2880E+03
    -47.005  0.0000E+00  0.2880E+03
    -46.745  0.0000E+00  0.2880E+03
    -46.484  0.0000E+00  0.2880E+03
    -46.223  0.0000E+00  0.2880E+03
    -45.963  0.0000E+00  0.2880E+03
    -45.702  0.0000E+00  0.2880E+03
    -45.442  0.0000E+00  0.2880E+03
    -45.181  0.0000E+00  0.2880E+03
    -44.921  0.0000E+00  0.2880E+03
    -44.660  0.0000E+00  0.2880E+03
    -44.399  0.0000E+00  0.2880E+03
    -44.139  0.0000E+00  0.2880E+03
    -43.878  0.0000E+00  0.2880E+03
    -43.618  0.0000E+00  0.2880E+03
    -43.357  0.0000E+00  0.2880E+03
    -43.097  0.0000E+00  0.2880E+03
    -42.836  0.0000E+00  0.2880E+03
    -42.575  0.0000E+00  0.2880E+03
    -42.315  0.0000E+00  0.2880E+03
    -42.054  0.0000E+00  0.2880E+03
    -41.794  0.0000E+00  0.2880E+03
    -41.533  0.0000E+00  0.2880E+03
    -41.273  0.0000E+00  0.2880E+03
    -41.012  0.0000E+00  0.2880E+03
    -40.751  0.0000E+00  0.2880E+03
    -40.491  0.0000E+00  0.2880E+03
    -40.230  0.0000E+00  0.2880E+03
    -39.970  0.0000E+00  0.2880E+03
    -39.709  0.0000E+00  0.2880E+03
    -39.449  0.0000E+00  0.2880E+03
    -39.188  0.0000E+00  0.2880E+03
    -38.927  0.0000E+00  0.2880E+03
    -38.667  0.0000E+00  0.2880E+03
    -38.406  0.0000E+00  0.2880E+03
    -38.146  0.0000E+00  0.2880E+03
    -37.885  0.0000E+00  0.2880E+03
    -37.625  0.0000E+00  0.2880E+03
    -37.364  0.0000E+00  0.2880E+03
    -37.103  0.0000E+00  0.2880E+03
    -36.843  0.0000E+00  0.2880E+03
    -36.582  0.0000E+00  0.2880E+03
    -36.322  0.0000E+00  0.2880E+03
    -36.061  0.0000E+00  0.2880E+03
    -35.801  0.0000E+00  0.2880E+03
    -35.540  0.0000E+00  0.2880E+03
    -35.279  0.0000E+00  0.2880E+03
    -35.019  0.0000E+00  0.2880E+03
    -34.758  0.0000E+00  0.2880E+03
    -34.498  0.0000E+00  0.2880E+03
    -34.237  0.0000E+00  0.2880E+03
    -33.977  0.0000E+00  0.2880E+03
    -33.716  0.0000E+00  0.2880E+03
    -33.455  0.0000E+00  0.2880E+03
    -33.195  0.0000E+00  0.2880E+03
    -32.934  0.0000E+00  0.2880E+03
    -32.674  0.0000E+00  0.2880E+03
    -32.413  0.0000E+00  0.2880E+03
    -32.153  0.0000E+00  0.2880E+03
    -31.892  0.0000E+00  0.2880E+03
    -31.631  0.0000E+00  0.2880E+03
    -31.371  0.0000E+00  0.2880E+03
    -31.110  0.0000E+00  0.2880E+03
    -30.850  0.0000E+00  0.2880E+03
    -30.589  0.0000E+00  0.2880E+03
    -30.329  0.0000E+00  0.2880E+03
    -30.068  0.0000E+00  0.2880E+03
    -29.807  0.0000E+00  0.2880E+03
    -29.547  0.0000E+00  0.2880E+03
    -29.286  0.0000E+00  0.2880E+03
    -29.026  0.0000E+00  0.2880E+03
    -28.765  0.0000E+00  0.2880E+03
    -28.505  0.0000E+00  0.2880E+03
    -28.244  0.0000E+00  0.2880E+03
    -27.983  0.0000E+00  0.2880E+03
    -27.723  0.0000E+00  0.2880E+03
    -27.462  0.0000E+00  0.2880E+03
    -27.202  0.0000E+00  0.2880E+03
    -26.941  0.0000E+00  0.2880E+03
    -26.681  0.0000E+00  0.2880E+03
    -26.420  0.0000E+00  0.2880E+03
    -26.159  0.0000E+00  0.2880E+03
    -25.899  0.0000E+00  0.2880E+03
    -25.638  0.0000E+00  0.2880E+03
    -25.378  0.0000E+00  0.2880E+03
    -25.117  0.0000E+00  0.2880E+03
    -24.857  0.0000E+00  0.2880E+03
    -24.596  0.0000E+00  0.2880E+03
    -24.335  0.0000E+00  0.2880E+03
    -24.075  0.0000E+00  0.2880E+03
    -23.814  0.0000E+00  0.2880E+03
    -23.554  0.0000E+00  0.2880E+03
    -23.293  0.0000E+00  0.2880E+03
    -23.033  0.0000E+00  0.2880E+03
    -22.772  0.0000E+00  0.2880E+03
    -22.511  0.0000E+00  0.2880E+03
    -22.251  0.0000E+00  0.2880E+03
    -21.990  0.0000E+00  0.2880E+03
    -21.730  0.0000E+00  0.2880E+03
    -21.469  0.0000E+00  0.2880E+03
    -21.209  0.0000E+00  0.2880E+03
    -20.948  0.0000E+00  0.2880E+03
    -20.687  0.0000E+00  0.2880E+03
    -20.427  0.0000E+00  0.2880E+03
    -20.166  0.0000E+00  0.2880E+03
    -19.906  0.0000E+00  0.2880E+03
    -19.645  0.0000E+00  0.2880E+03
    -19.385  0.0000E+00  0.2880E+03
    -19.124  0.0000E+00  0.2880E+03
    -18.863  0.0000E+00  0.2880E+03
    -18.603  0.0000E+00  0.2880E+03
    -18.342  0.0000E+00  0.2880E+03
    -18.082  0.0000E+00  0.2880E+03
    -17.821  0.0000E+00  0.2880E+03
    -17.561  0.0000E+00  0.2880E+03
    -17.300  0.0000E+00  0.2880E+03
    -17.039  0.0000E+00  0.2880E+03
    -16.779  0.0000E+00  0.2880E+03
    -16.518  0.0000E+00  0.2880E+03
    -16.258  0.0000E+00  0.2880E+03
    -15.997  0.0000E+00  0.2880E+03
    -15.737  0.0000E+00  0.2880E+03
    -15.476  0.0000E+00  0.2880E+03
    -15.215  0.0000E+00  0.2880E+03
    -14.955  0.0000E+00  0.2880E+03
    -14.694  0.0000E+00  0.2880E+03
    -14.434  0.4261E-15  0.2880E+03
    -14.173  0.5511E-09  0.2880E+03
    -13.913  0.1876E-04  0.2880E+03
    -13.652  0.2451E-01  0.2880E+03
    -13.391  0.1421E+01  0.2884E+03
    -13.131  0.5197E+01  0.2897E+03
    -12.870  0.5328E+01  0.2911E+03
    -12.610  0.8465E+01  0.2933E+03
    -12.349  0.9850E+01  0.2959E+03
    -12.089  0.1373E+02  0.2995E+03
    -11.828  0.2073E+02  0.3049E+03
    -11.567  0.2434E+02  0.3112E+03
    -11.307  0.2617E+02  0.3180E+03
    -11.046  0.4064E+02  0.3286E+03
    -10.786  0.4817E+02  0.3412E+03
    -10.525  0.4319E+02  0.3524E+03
    -10.265  0.4430E+02  0.3640E+03
    -10.004  0.3781E+02  0.3738E+03
     -9.743  0.1457E+02  0.3776E+03
     -9.483  0.3749E+01  0.3786E+03
     -9.222  0.7754E+01  0.3806E+03
     -8.962  0.6438E+01  0.3823E+03
     -8.701  0.5340E+01  0.3837E+03
     -8.441  0.1188E+01  0.3840E+03
     -8.180  0.1673E-01  0.3840E+03
     -7.919  0.1032E-04  0.3840E+03
     -7.659  0.2429E-09  0.3840E+03
     -7.398  0.0000E+00  0.3840E+03
     -7.138  0.0000E+00  0.3840E+03
     -6.877  0.0000E+00  0.3840E+03
     -6.617  0.0000E+00  0.3840E+03
     -6.356  0.8266E-13  0.3840E+03
     -6.095  0.2573E-07  0.3840E+03
     -5.835  0.2979E-03  0.3840E+03
     -5.574  0.1440E+00  0.3840E+03
     -5.314  0.3942E+01  0.3851E+03
     -5.053  0.1321E+02  0.3885E+03
     -4.793  0.2494E+02  0.3950E+03
     -4.532  0.2536E+02  0.4016E+03
     -4.271  0.3412E+02  0.4105E+03
     -4.011  0.3822E+02  0.4205E+03
     -3.750  0.5283E+02  0.4342E+03
     -3.490  0.5939E+02  0.4497E+03
     -3.229  0.3695E+02  0.4593E+03
     -2.969  0.3839E+02  0.4693E+03
     -2.708  0.4224E+02  0.4803E+03
     -2.447  0.3897E+02  0.4905E+03
     -2.187  0.5081E+02  0.5037E+03
     -1.926  0.7339E+02  0.5229E+03
     -1.666  0.7435E+02  0.5422E+03
     -1.405  0.8127E+02  0.5634E+03
     -1.145  0.9959E+02  0.5894E+03
     -0.884  0.9833E+02  0.6150E+03
     -0.623  0.6689E+02  0.6324E+03
     -0.363  0.5237E+02  0.6461E+03
     -0.102  0.7025E+02  0.6644E+03
      0.158  0.9504E+02  0.6891E+03
      0.419  0.9918E+02  0.7150E+03
      0.679  0.1209E+03  0.7465E+03
      0.940  0.1296E+03  0.7802E+03
      1.201  0.1122E+03  0.8095E+03
      1.461  0.1913E+03  0.8593E+03
      1.722  0.2217E+03  0.9171E+03
      1.982  0.1617E+03  0.9592E+03
      2.243  0.1221E+03  0.9910E+03
      2.503  0.8116E+02  0.1012E+04
      2.764  0.5031E+02  0.1025E+04
      3.025  0.4084E+02  0.1036E+04
      3.285  0.5069E+02  0.1049E+04
      3.546  0.7077E+02  0.1068E+04
      3.806  0.9429E+02  0.1092E+04
      4.067  0.8308E+02  0.1114E+04
      4.327  0.5771E+02  0.1129E+04
      4.588  0.3708E+02  0.1138E+04
      4.849  0.1715E+02  0.1143E+04
      5.109  0.8954E+01  0.1145E+04
      5.370  0.1061E+02  0.1148E+04
      5.630  0.7291E+01  0.1150E+04
      5.891  0.1423E+02  0.1154E+04
      6.151  0.2618E+02  0.1160E+04
      6.412  0.1695E+02  0.1165E+04
      6.673  0.1972E+02  0.1170E+04
      6.933  0.1409E+02  0.1174E+04
      7.194  0.2716E+02  0.1181E+04
      7.454  0.3365E+02  0.1190E+04
      7.715  0.3645E+02  0.1199E+04
      7.975  0.4253E+02  0.1210E+04
      8.236  0.3647E+02  0.1220E+04
      8.497  0.4210E+02  0.1231E+04
      8.757  0.4310E+02  0.1242E+04
      9.018  0.3167E+02  0.1250E+04
      9.278  0.3972E+02  0.1260E+04
      9.539  0.2619E+02  0.1267E+04
      9.799  0.2752E+01  0.1268E+04
     10.060  0.2127E-01  0.1268E+04
     10.321  0.7980E-05  0.1268E+04
     10.581  0.1218E-09  0.1268E+04
     10.842  0.0000E+00  0.1268E+04
     11.102  0.0000E+00  0.1268E+04
     11.363  0.0000E+00  0.1268E+04
     11.623  0.0000E+00  0.1268E+04
     11.884  0.0000E+00  0.1268E+04
     12.145  0.0000E+00  0.1268E+04
     12.405  0.0000E+00  0.1268E+04
     12.666  0.0000E+00  0.1268E+04
     12.926  0.0000E+00  0.1268E+04
