"Millerite NiS"                         
           1
     6.278560    0.000000    0.000000
     2.092853   11.060196    0.000000
     0.000000    0.000000   29.156820
   Ty   Ty
  48  48
Direct configuration=     1
   0.25630944  0.01645859  0.15239349
   0.25630944  0.01645859  0.48090702
   0.00630944  0.26645858  0.31665025
   0.08991553  0.10385223  0.64262912
   0.25630944  0.01645859  0.06559824
   0.25630944  0.01645859  0.39411177
   0.00630944  0.26645858  0.22985501
   0.00630944  0.26645858  0.55836854
   0.19025794  0.21461308  0.10899586
   0.19025794  0.21461308  0.43750940
   0.44025794  0.46461308  0.27325263
   0.44055513  0.54732009  0.55005868
   0.75630944  0.01645859  0.15239349
   0.75630944  0.01645859  0.48090702
   0.50630944  0.26645858  0.31665025
   0.58991553  0.10385223  0.64262912
   0.75630944  0.01645859  0.06559824
   0.75630944  0.01645859  0.39411177
   0.50630944  0.26645858  0.22985501
   0.50630944  0.26645858  0.55836854
   0.69025794  0.21461308  0.10899586
   0.69025794  0.21461308  0.43750940
   0.94025794  0.46461308  0.27325263
   0.94055513  0.54732009  0.55005868
   0.25630944  0.51645859  0.15239349
   0.25630944  0.51645859  0.48090702
   0.00630944  0.76645858  0.31665025
   0.01039681  0.76853431  0.63843225
   0.33276135  0.36362420  0.06316400
   0.25630944  0.51645859  0.39411177
   0.00630944  0.76645858  0.22985501
   0.00630944  0.76645858  0.55836854
   0.19044786  0.79738776  0.16075507
   0.19025794  0.71461308  0.43750940
   0.44025794  0.96461308  0.27325263
   0.44025794  0.96461308  0.60176617
   0.75630944  0.51645859  0.15239349
   0.75630944  0.51645859  0.48090702
   0.50630944  0.76645858  0.31665025
   0.51039681  0.76853431  0.63843225
   0.83276135  0.36362420  0.06316400
   0.75630944  0.51645859  0.39411177
   0.50630944  0.76645858  0.22985501
   0.50630944  0.76645858  0.55836854
   0.69044786  0.79738776  0.16075507
   0.69025794  0.71461308  0.43750940
   0.94025794  0.96461308  0.27325263
   0.94025794  0.96461308  0.60176617
   0.45289882  0.16716181  0.06407143
   0.46840410  0.16661759  0.38224849
   0.21840410  0.41661758  0.21799173
   0.21840410  0.41661758  0.54650526
   0.46840410  0.16661759  0.16425677
   0.46840410  0.16661759  0.49277030
   0.07818385  0.37948260  0.01930106
   0.21840410  0.41661758  0.32851354
   0.05251161  0.41429508  0.10899586
   0.05251161  0.41429508  0.43750940
   0.30251160  0.16429509  0.27325263
   0.30251160  0.16429509  0.60176617
   0.95289882  0.16716181  0.06407143
   0.96840410  0.16661759  0.38224849
   0.71840410  0.41661758  0.21799173
   0.71840410  0.41661758  0.54650526
   0.96840410  0.16661759  0.16425677
   0.96840410  0.16661759  0.49277030
   0.57818385  0.37948260  0.01930106
   0.71840410  0.41661758  0.32851354
   0.55251161  0.41429508  0.10899586
   0.55251161  0.41429508  0.43750940
   0.80251160  0.16429509  0.27325263
   0.80251160  0.16429509  0.60176617
   0.46840411  0.66661759  0.38224849
   0.21840411  0.91661758  0.21799173
   0.21840411  0.91661758  0.54650526
   0.46840411  0.66661759  0.16425677
   0.46840411  0.66661759  0.49277030
   0.02400704  0.96248553  0.02433459
   0.21840411  0.91661758  0.32851354
   0.20835350  0.90613740  0.64704959
   0.05251161  0.91429508  0.10899586
   0.05251161  0.91429508  0.43750940
   0.30251161  0.66429509  0.27325263
   0.30251161  0.66429509  0.60176617
   0.96840411  0.66661759  0.38224849
   0.71840411  0.91661758  0.21799173
   0.71840411  0.91661758  0.54650526
   0.96840411  0.66661759  0.16425677
   0.96840411  0.66661759  0.49277030
   0.52400704  0.96248553  0.02433459
   0.71840411  0.91661758  0.32851354
   0.70835350  0.90613740  0.64704959
   0.55251161  0.91429508  0.10899586
   0.55251161  0.91429508  0.43750940
   0.80251161  0.66429509  0.27325263
   0.80251161  0.66429509  0.60176617
