"Millerite NiS"                         
           1
    11.256463    0.000000    0.000000
     0.000000    9.578410    0.000000
     0.000000    0.000000   17.192492
   Ty   Ty
  26  26
Direct configuration=     1
   0.43933499  0.46388800  0.16283377
   0.47423298  0.47156427  0.32661483
   0.16727746  0.97357352  0.09516274
   0.20406827  0.97853756  0.23466569
   0.42300445  0.19102441  0.18434055
   0.49265420  0.21176551  0.32623809
   0.15747783  0.69323408  0.09601719
   0.20784719  0.68771867  0.23934057
   0.13063970  0.33178500  0.13913288
   0.18249164  0.33178500  0.31854512
   0.52179280  0.67242522  0.10925146
   0.37818624  0.83645409  0.21701397
   0.51562184  0.68587377  0.26308077
   0.93933499  0.46388800  0.16283377
   0.98196815  0.47213790  0.32202375
   0.73884426  0.82825859  0.10750537
   0.71526096  0.96388800  0.25253989
   0.93933499  0.19968200  0.16283377
   0.98138744  0.19057468  0.32160017
   0.70429682  0.53679763  0.10808636
   0.71526096  0.69968200  0.25253989
   0.62240204  0.32354356  0.15735475
   0.68464011  0.33117711  0.30187525
   0.96418093  0.87562954  0.09207772
   0.90656566  0.83178500  0.22883899
   0.80424862  0.83203085  0.36357434
   0.06616507  0.15483341  0.08049816
   0.11148904  0.16357000  0.23893853
   0.11615591  0.19681954  0.39784183
   0.33556306  0.66357000  0.14923241
   0.35292820  0.67004804  0.31400576
   0.06911307  0.50430886  0.07983437
   0.11148904  0.50000000  0.23893853
   0.11695405  0.46689484  0.39810822
   0.33556306  1.00000000  0.14923241
   0.31415340  0.31993799  0.11692437
   0.36788880  0.33178500  0.26911836
   0.09911619  0.83554340  0.01561870
   0.09196284  0.83178500  0.17941224
   0.61148904  0.16357000  0.23893853
   0.57646558  0.34869526  0.39737752
   0.83556306  0.66357000  0.14923241
   0.88436807  0.66427538  0.31223946
   0.54676189  0.45171731  0.06747969
   0.61148904  0.50000000  0.23893853
   0.83556306  1.00000000  0.14923241
   0.88014410  0.00117611  0.31098869
   0.80281935  0.34207032  0.11473740
   0.86788880  0.33178500  0.26911836
   0.65717655  0.69604600  0.02949858
   0.59196284  0.83178500  0.17941224
   0.62789297  0.82547515  0.33490198
