<?xml version="1.0" encoding="ISO-8859-1"?>
<modeling>
 <generator>
  <i name="program" type="string">vasp </i>
  <i name="version" type="string">5.4.4.18Apr17-6-g9f103f2a35  </i>
  <i name="subversion" type="string">(build Aug 13 2019 17:33:20) gamma-only         parallel </i>
  <i name="platform" type="string">LinuxIFC </i>
  <i name="date" type="string">2020 05 10 </i>
  <i name="time" type="string">15:49:57 </i>
 </generator>
 <incar>
  <i type="string" name="SYSTEM">"Millerite NiS"</i>
  <i type="string" name="PREC">normal</i>
  <i type="int" name="NSIM">     4</i>
  <i type="int" name="NELM">   100</i>
  <i name="ENCUT">    450.00000000</i>
  <i type="string" name="LREAL">A</i>
  <i type="int" name="ISMEAR">     0</i>
  <i type="int" name="NWRITE">     2</i>
  <i type="logical" name="LWAVE"> F  </i>
  <i type="logical" name="LCHARG"> F  </i>
  <v type="int" name="KPOINT_BSE">    -1     0     0     0</v>
  <i type="int" name="NELM">   100</i>
 </incar>
 <structure name="primitive_cell" >
  <crystal>
   <varray name="basis" >
    <v>      11.25646304       0.00000000       0.00000000 </v>
    <v>       5.04456212      10.06282034       0.00000000 </v>
    <v>       0.00000000       0.00000000      21.74423184 </v>
   </varray>
   <i name="volume">   2463.00752351 </i>
   <varray name="rec_basis" >
    <v>       0.08883785      -0.04453504       0.00000000 </v>
    <v>       0.00000000       0.09937572       0.00000000 </v>
    <v>       0.00000000       0.00000000       0.04598921 </v>
   </varray>
  </crystal>
  <varray name="positions" >
   <v>       0.26092070       0.47878036       0.25332799 </v>
   <v>       0.07287764      -0.33317657       0.27005396 </v>
   <v>       0.17409868       0.39738738       0.18045411 </v>
   <v>       0.34231368      -0.43439761       0.18045411 </v>
   <v>       0.43627354       0.47164251       0.31548109 </v>
   <v>       0.26805855       0.30342751       0.31548109 </v>
   <v>       0.36819893       0.23939913       0.21765305 </v>
   <v>      -0.49969806       0.37150212       0.21765305 </v>
   <v>       0.35488056       0.38482049       0.38835497 </v>
   <v>       0.16696083      -0.42725976       0.11830101 </v>
   <v>       0.16683750      -0.42713643       0.40508094 </v>
   <v>       0.47891775       0.26078330       0.13502698 </v>
   <v>      -0.42712237       0.16682343       0.27005396 </v>
   <v>       0.00030194       0.37150212       0.21765305 </v>
   <v>       0.09426181      -0.22245774       0.35268003 </v>
   <v>      -0.03784120      -0.35456074       0.35268003 </v>
   <v>       0.36819893      -0.26060087       0.21765305 </v>
   <v>       0.26805855      -0.19657249       0.31548109 </v>
   <v>      -0.06372646       0.47164251       0.31548109 </v>
   <v>       0.40634206       0.46546199       0.08262607 </v>
   <v>       0.27423906       0.33335899       0.08262607 </v>
   <v>       0.46215880       0.14543926       0.35268003 </v>
   <v>      -0.40573819       0.27754226       0.35268003 </v>
   <v>       0.09426181       0.27754226       0.35268003 </v>
   <v>       0.46215880      -0.35456074       0.35268003 </v>
   <v>       0.00030194      -0.12849788       0.21765305 </v>
   <v>      -0.13180107      -0.26060087       0.21765305 </v>
   <v>      -0.02108225      -0.23921670       0.13502698 </v>
   <v>       0.08289620       0.47908838       0.06413932 </v>
   <v>       0.26061268      -0.34319514       0.06413931 </v>
   <v>       0.34231368       0.06560239       0.18045411 </v>
   <v>      -0.32590132       0.39738738       0.18045411 </v>
   <v>      -0.15768632      -0.43439761       0.18045411 </v>
   <v>       0.17409868      -0.10261262       0.18045411 </v>
   <v>       0.07287763       0.16682343       0.27005396 </v>
   <v>      -0.42712236      -0.33317657       0.27005396 </v>
   <v>       0.36201842       0.20946765       0.45050807 </v>
   <v>      -0.46976657       0.37768264       0.45050807 </v>
   <v>       0.04340626      -0.44702752       0.46717869 </v>
   <v>       0.18672858      -0.30370520       0.46717870 </v>
   <v>      -0.34079503       0.08049609       0.15095029 </v>
   <v>      -0.06372646      -0.02835749       0.31548109 </v>
   <v>      -0.23194145      -0.19657249       0.31548109 </v>
   <v>      -0.23194145       0.30342751       0.31548109 </v>
   <v>       0.43627354      -0.02835749       0.31548109 </v>
   <v>       0.35184238       0.38785868       0.01233296 </v>
   <v>       0.03023343       0.37768264       0.45050807 </v>
   <v>       0.36201842      -0.29053236       0.45050807 </v>
   <v>      -0.41013881       0.46754449       0.06734644 </v>
   <v>       0.27215659       0.14983986       0.06734644 </v>
   <v>       0.47891775      -0.23921670       0.13502698 </v>
   <v>      -0.02108225       0.26078330       0.13502698 </v>
   <v>       0.27423907      -0.16664101       0.08262607 </v>
   <v>      -0.09365794       0.46546199       0.08262607 </v>
   <v>      -0.14511944      -0.11517951       0.38835497 </v>
   <v>       0.26092070      -0.02121964       0.25332799 </v>
   <v>      -0.23907930       0.47878036       0.25332799 </v>
   <v>      -0.33316250       0.07286357       0.40508094 </v>
   <v>      -0.20955421      -0.20316244       0.10636344 </v>
   <v>      -0.05713652      -0.05074473       0.10636344 </v>
   <v>       0.03023342      -0.12231736       0.45050807 </v>
   <v>      -0.13798158      -0.29053236       0.45050807 </v>
   <v>       0.16696083       0.07274024       0.11830101 </v>
   <v>       0.35488056      -0.11517951       0.38835497 </v>
   <v>      -0.14511944       0.38482049       0.38835497 </v>
   <v>      -0.23907930      -0.02121964       0.25332799 </v>
   <v>      -0.33303917      -0.42725976       0.11830101 </v>
   <v>       0.45410500       0.28559606      -0.49498272 </v>
   <v>      -0.45062082      -0.44527714       0.47268067 </v>
   <v>       0.18497821       0.19032188       0.47268067 </v>
   <v>       0.16683750       0.07286357       0.40508094 </v>
   <v>      -0.33316250      -0.42713643       0.40508094 </v>
   <v>      -0.13180107       0.23939913       0.21765305 </v>
   <v>      -0.49969806      -0.12849788       0.21765305 </v>
   <v>       0.40648298      -0.04267282       0.10030007 </v>
   <v>      -0.21762613       0.33321808       0.10030007 </v>
   <v>      -0.15768632       0.06560239       0.18045411 </v>
   <v>      -0.32590132      -0.10261262       0.18045411 </v>
   <v>      -0.45656526       0.05298420       0.46718953 </v>
   <v>      -0.31328313       0.19626632       0.46718954 </v>
   <v>      -0.03784120       0.14543926       0.35268003 </v>
   <v>      -0.40573819      -0.22245774       0.35268003 </v>
   <v>      -0.04586870      -0.21443024      -0.49498642 </v>
   <v>       0.08798013      -0.01841446       0.06089800 </v>
   <v>      -0.24188447      -0.34827908       0.06089799 </v>
   <v>      -0.24074993      -0.01954902       0.07240231 </v>
   <v>      -0.12640106       0.36610047       0.49716306 </v>
   <v>       0.37360060      -0.13389787       0.49716306 </v>
   <v>       0.36779857      -0.10807376       0.02031045 </v>
   <v>      -0.15222518       0.37190249       0.02031044 </v>
   <v>      -0.13798158       0.20946765       0.45050807 </v>
   <v>      -0.46976658      -0.12231736       0.45050807 </v>
   <v>       0.04938174       0.05472623       0.47268412 </v>
   <v>      -0.31502516      -0.30968068       0.47268413 </v>
   <v>      -0.29004923      -0.47025608      -0.47253618 </v>
   <v>       0.20995713       0.02975028      -0.47253618 </v>
  </varray>
 </structure>
 <varray name="primitive_index" >
  <v type="int" >        1 </v>
  <v type="int" >       73 </v>
  <v type="int" >       58 </v>
  <v type="int" >       81 </v>
  <v type="int" >       54 </v>
  <v type="int" >       59 </v>
  <v type="int" >        7 </v>
  <v type="int" >       21 </v>
  <v type="int" >        2 </v>
  <v type="int" >       28 </v>
  <v type="int" >       74 </v>
  <v type="int" >       52 </v>
  <v type="int" >       61 </v>
  <v type="int" >        9 </v>
  <v type="int" >       34 </v>
  <v type="int" >       44 </v>
  <v type="int" >       31 </v>
  <v type="int" >       84 </v>
  <v type="int" >       67 </v>
  <v type="int" >       12 </v>
  <v type="int" >        6 </v>
  <v type="int" >        8 </v>
  <v type="int" >       22 </v>
  <v type="int" >       10 </v>
  <v type="int" >       32 </v>
  <v type="int" >       33 </v>
  <v type="int" >       43 </v>
  <v type="int" >       89 </v>
  <v type="int" >       57 </v>
  <v type="int" >       80 </v>
  <v type="int" >       56 </v>
  <v type="int" >       70 </v>
  <v type="int" >       93 </v>
  <v type="int" >       83 </v>
  <v type="int" >       49 </v>
  <v type="int" >       86 </v>
  <v type="int" >       60 </v>
  <v type="int" >       66 </v>
  <v type="int" >       29 </v>
  <v type="int" >       35 </v>
  <v type="int" >       16 </v>
  <v type="int" >       91 </v>
  <v type="int" >       95 </v>
  <v type="int" >       71 </v>
  <v type="int" >       79 </v>
  <v type="int" >       51 </v>
  <v type="int" >       53 </v>
  <v type="int" >       85 </v>
  <v type="int" >       69 </v>
  <v type="int" >       55 </v>
  <v type="int" >       76 </v>
  <v type="int" >       64 </v>
  <v type="int" >       30 </v>
  <v type="int" >       24 </v>
  <v type="int" >       38 </v>
  <v type="int" >       25 </v>
  <v type="int" >       13 </v>
  <v type="int" >       62 </v>
  <v type="int" >       42 </v>
  <v type="int" >       48 </v>
  <v type="int" >       78 </v>
  <v type="int" >       96 </v>
  <v type="int" >        4 </v>
  <v type="int" >       26 </v>
  <v type="int" >       14 </v>
  <v type="int" >       37 </v>
  <v type="int" >       40 </v>
  <v type="int" >        3 </v>
  <v type="int" >       41 </v>
  <v type="int" >       11 </v>
  <v type="int" >       50 </v>
  <v type="int" >       87 </v>
  <v type="int" >       19 </v>
  <v type="int" >       45 </v>
  <v type="int" >       36 </v>
  <v type="int" >       18 </v>
  <v type="int" >       68 </v>
  <v type="int" >       94 </v>
  <v type="int" >       17 </v>
  <v type="int" >       23 </v>
  <v type="int" >       20 </v>
  <v type="int" >       46 </v>
  <v type="int" >       39 </v>
  <v type="int" >       82 </v>
  <v type="int" >       92 </v>
  <v type="int" >       88 </v>
  <v type="int" >       15 </v>
  <v type="int" >       27 </v>
  <v type="int" >       75 </v>
  <v type="int" >       63 </v>
  <v type="int" >       72 </v>
  <v type="int" >       90 </v>
  <v type="int" >        5 </v>
  <v type="int" >       47 </v>
  <v type="int" >       65 </v>
  <v type="int" >       77 </v>
 </varray>
 <kpoints>
  <generation param="Gamma">
   <v type="int" name="divisions">       1        1        1 </v>
   <v name="usershift">      0.00000000       0.00000000       0.00000000 </v>
   <v name="genvec1">      1.00000000       0.00000000       0.00000000 </v>
   <v name="genvec2">      0.00000000       1.00000000       0.00000000 </v>
   <v name="genvec3">      0.00000000       0.00000000       1.00000000 </v>
   <v name="shift">      0.00000000       0.00000000       0.00000000 </v>
  </generation>
  <varray name="kpointlist" >
   <v>       0.00000000       0.00000000       0.00000000 </v>
  </varray>
  <varray name="weights" >
   <v>       1.00000000 </v>
  </varray>
 </kpoints>
 <parameters>
  <separator name="general" >
   <i type="string" name="SYSTEM">"Millerite NiS"</i>
   <i type="logical" name="LCOMPAT"> F  </i>
  </separator>
  <separator name="electronic" >
   <i type="string" name="PREC">normal</i>
   <i name="ENMAX">    450.00000000</i>
   <i name="ENAUG">    703.44300000</i>
   <i name="EDIFF">      0.00010000</i>
   <i type="int" name="IALGO">    38</i>
   <i type="int" name="IWAVPR">    10</i>
   <i type="int" name="NBANDS">   634</i>
   <i name="NELECT">   1056.00000000</i>
   <i type="int" name="TURBO">     0</i>
   <i type="int" name="IRESTART">     0</i>
   <i type="int" name="NREBOOT">     0</i>
   <i type="int" name="NMIN">     0</i>
   <i name="EREF">      0.00000000</i>
   <separator name="electronic smearing" >
    <i type="int" name="ISMEAR">     0</i>
    <i name="SIGMA">      0.20000000</i>
    <i name="KSPACING">      0.50000000</i>
    <i type="logical" name="KGAMMA"> T  </i>
   </separator>
   <separator name="electronic projectors" >
    <i type="logical" name="LREAL"> T  </i>
    <v name="ROPT">     -0.00050000     -0.00050000</v>
    <i type="int" name="LMAXPAW">  -100</i>
    <i type="int" name="LMAXMIX">     2</i>
    <i type="logical" name="NLSPLINE"> F  </i>
   </separator>
   <separator name="electronic startup" >
    <i type="int" name="ISTART">     0</i>
    <i type="int" name="ICHARG">     2</i>
    <i type="int" name="INIWAV">     1</i>
   </separator>
   <separator name="electronic spin" >
    <i type="int" name="ISPIN">     1</i>
    <i type="logical" name="LNONCOLLINEAR"> F  </i>
    <v name="MAGMOM">      1.00000000      1.00000000      1.00000000      1.00000000      1.00000000      1.00000000      1.00000000      1.00000000      1.00000000      1.00000000      1.00000000      1.00000000      1.00000000      1.00000000      1.00000000      1.00000000      1.00000000      1.00000000      1.00000000      1.00000000
      1.00000000      1.00000000      1.00000000      1.00000000      1.00000000      1.00000000      1.00000000      1.00000000      1.00000000      1.00000000      1.00000000      1.00000000      1.00000000      1.00000000      1.00000000      1.00000000      1.00000000      1.00000000      1.00000000      1.00000000
      1.00000000      1.00000000      1.00000000      1.00000000      1.00000000      1.00000000      1.00000000      1.00000000      1.00000000      1.00000000      1.00000000      1.00000000      1.00000000      1.00000000      1.00000000      1.00000000      1.00000000      1.00000000      1.00000000      1.00000000
      1.00000000      1.00000000      1.00000000      1.00000000      1.00000000      1.00000000      1.00000000      1.00000000      1.00000000      1.00000000      1.00000000      1.00000000      1.00000000      1.00000000      1.00000000      1.00000000      1.00000000      1.00000000      1.00000000      1.00000000
      1.00000000      1.00000000      1.00000000      1.00000000      1.00000000      1.00000000      1.00000000      1.00000000      1.00000000      1.00000000      1.00000000      1.00000000      1.00000000      1.00000000      1.00000000      1.00000000</v>
    <i name="NUPDOWN">     -1.00000000</i>
    <i type="logical" name="LSORBIT"> F  </i>
    <v name="SAXIS">      0.00000000      0.00000000      1.00000000</v>
    <i type="logical" name="LSPIRAL"> F  </i>
    <v name="QSPIRAL">      0.00000000      0.00000000      0.00000000</v>
    <i type="logical" name="LZEROZ"> F  </i>
   </separator>
   <separator name="electronic exchange-correlation" >
    <i type="logical" name="LASPH"> F  </i>
    <i type="logical" name="LMETAGGA"> F  </i>
   </separator>
   <separator name="electronic convergence" >
    <i type="int" name="NELM">   100</i>
    <i type="int" name="NELMDL">    -5</i>
    <i type="int" name="NELMIN">     2</i>
    <i name="ENINI">    450.00000000</i>
    <separator name="electronic convergence detail" >
     <i type="logical" name="LDIAG"> T  </i>
     <i type="logical" name="LSUBROT"> F  </i>
     <i name="WEIMIN">      0.00000000</i>
     <i name="EBREAK">      0.00000004</i>
     <i name="DEPER">      0.30000000</i>
     <i type="int" name="NRMM">     4</i>
     <i name="TIME">      0.40000000</i>
    </separator>
   </separator>
   <separator name="electronic mixer" >
    <i name="AMIX">      0.40000000</i>
    <i name="BMIX">      1.00000000</i>
    <i name="AMIN">      0.10000000</i>
    <i name="AMIX_MAG">      1.60000000</i>
    <i name="BMIX_MAG">      1.00000000</i>
    <separator name="electronic mixer details" >
     <i type="int" name="IMIX">     4</i>
     <i type="logical" name="MIXFIRST"> F  </i>
     <i type="int" name="MAXMIX">   -45</i>
     <i name="WC">    100.00000000</i>
     <i type="int" name="INIMIX">     1</i>
     <i type="int" name="MIXPRE">     1</i>
     <i type="int" name="MREMOVE">     5</i>
    </separator>
   </separator>
   <separator name="electronic dipolcorrection" >
    <i type="logical" name="LDIPOL"> F  </i>
    <i type="logical" name="LMONO"> F  </i>
    <i type="int" name="IDIPOL">     0</i>
    <i name="EPSILON">      1.00000000</i>
    <v name="DIPOL">   -100.00000000   -100.00000000   -100.00000000</v>
    <i name="EFIELD">      0.00000000</i>
   </separator>
  </separator>
  <separator name="grids" >
   <i type="int" name="NGX">    60</i>
   <i type="int" name="NGY">    60</i>
   <i type="int" name="NGZ">   120</i>
   <i type="int" name="NGXF">   120</i>
   <i type="int" name="NGYF">   120</i>
   <i type="int" name="NGZF">   240</i>
   <i type="logical" name="ADDGRID"> F  </i>
  </separator>
  <separator name="ionic" >
   <i type="int" name="NSW">     0</i>
   <i type="int" name="IBRION">    -1</i>
   <i type="int" name="MDALGO">     0</i>
   <i type="int" name="ISIF">     2</i>
   <i name="PSTRESS">      0.00000000</i>
   <i name="EDIFFG">      0.00100000</i>
   <i type="int" name="NFREE">     0</i>
   <i name="POTIM">      0.50000000</i>
   <i name="SMASS">     -3.00000000</i>
   <i name="SCALEE">      1.00000000</i>
  </separator>
  <separator name="ionic md" >
   <i name="TEBEG">      0.00010000</i>
   <i name="TEEND">      0.00010000</i>
   <i type="int" name="NBLOCK">     1</i>
   <i type="int" name="KBLOCK">     1</i>
   <i type="int" name="NPACO">   256</i>
   <i name="APACO">     16.00000000</i>
  </separator>
  <separator name="symmetry" >
   <i type="int" name="ISYM">     2</i>
   <i name="SYMPREC">      0.00001000</i>
  </separator>
  <separator name="dos" >
   <i type="int" name="LORBIT">     0</i>
   <v name="RWIGS">     -1.00000000     -1.00000000</v>
   <i type="int" name="NEDOS">   301</i>
   <i name="EMIN">     10.00000000</i>
   <i name="EMAX">    -10.00000000</i>
   <i name="EFERMI">      0.00000000</i>
  </separator>
  <separator name="writing" >
   <i type="int" name="NWRITE">     2</i>
   <i type="logical" name="LWAVE"> F  </i>
   <i type="logical" name="LDOWNSAMPLE"> F  </i>
   <i type="logical" name="LCHARG"> F  </i>
   <i type="logical" name="LPARD"> F  </i>
   <i type="logical" name="LVTOT"> F  </i>
   <i type="logical" name="LVHAR"> F  </i>
   <i type="logical" name="LELF"> F  </i>
   <i type="logical" name="LOPTICS"> F  </i>
   <v name="STM">      0.00000000      0.00000000      0.00000000      0.00000000      0.00000000      0.00000000      0.00000000</v>
  </separator>
  <separator name="performance" >
   <i type="int" name="NPAR">     2</i>
   <i type="int" name="NSIM">     4</i>
   <i type="int" name="NBLK">    -1</i>
   <i type="logical" name="LPLANE"> T  </i>
   <i type="logical" name="LSCALAPACK"> T  </i>
   <i type="logical" name="LSCAAWARE"> F  </i>
   <i type="logical" name="LSCALU"> F  </i>
   <i type="logical" name="LASYNC"> F  </i>
   <i type="logical" name="LORBITALREAL"> F  </i>
  </separator>
  <separator name="miscellaneous" >
   <i type="int" name="IDIOT">     3</i>
   <i type="int" name="ISPECIAL">     0</i>
   <i type="logical" name="LMUSIC"> F  </i>
   <v name="POMASS">     58.69000000     32.06600000</v>
   <v name="DARWINR">      0.00000000      0.00000000</v>
   <v name="DARWINV">      1.00000000      1.00000000</v>
   <i type="logical" name="LCORR"> T  </i>
  </separator>
  <i type="logical" name="GGA_COMPAT"> T  </i>
  <i type="logical" name="LBERRY"> F  </i>
  <i type="int" name="ICORELEVEL">     0</i>
  <i type="logical" name="LDAU"> F  </i>
  <i type="int" name="I_CONSTRAINED_M">     0</i>
  <separator name="electronic exchange-correlation" >
   <i type="string" name="GGA">--</i>
   <i type="int" name="VOSKOWN">     0</i>
   <i type="logical" name="LHFCALC"> F  </i>
   <i type="string" name="PRECFOCK"></i>
   <i type="logical" name="LSYMGRAD"> F  </i>
   <i type="logical" name="LHFONE"> F  </i>
   <i type="logical" name="LRHFCALC"> F  </i>
   <i type="logical" name="LTHOMAS"> F  </i>
   <i type="logical" name="LMODELHF"> F  </i>
   <i name="ENCUT4O">     -1.00000000</i>
   <i type="int" name="EXXOEP">     0</i>
   <i type="int" name="FOURORBIT">     0</i>
   <i name="AEXX">      0.00000000</i>
   <i name="HFALPHA">      0.00000000</i>
   <i name="MCALPHA">      0.00000000</i>
   <i name="ALDAX">      1.00000000</i>
   <i name="AGGAX">      1.00000000</i>
   <i name="ALDAC">      1.00000000</i>
   <i name="AGGAC">      1.00000000</i>
   <i type="int" name="NKREDX">     1</i>
   <i type="int" name="NKREDY">     1</i>
   <i type="int" name="NKREDZ">     1</i>
   <i type="logical" name="SHIFTRED"> F  </i>
   <i type="logical" name="ODDONLY"> F  </i>
   <i type="logical" name="EVENONLY"> F  </i>
   <i type="int" name="LMAXFOCK">     0</i>
   <i type="int" name="NMAXFOCKAE">     0</i>
   <i type="logical" name="LFOCKAEDFT"> F  </i>
   <i name="HFSCREEN">      0.00000000</i>
   <i name="HFSCREENC">      0.00000000</i>
   <i type="int" name="NBANDSGWLOW">     0</i>
  </separator>
  <separator name="vdW DFT" >
   <i type="logical" name="LUSE_VDW"> F  </i>
   <i name="Zab_VDW">     -0.84910000</i>
   <i name="PARAM1">      0.12340000</i>
   <i name="PARAM2">      1.00000000</i>
   <i name="PARAM3">      0.00000000</i>
  </separator>
  <separator name="model GW" >
   <i type="int" name="MODEL_GW">     0</i>
   <i name="MODEL_EPS0">     15.39379702</i>
   <i name="MODEL_ALPHA">      1.00000000</i>
  </separator>
  <separator name="linear response parameters" >
   <i type="logical" name="LEPSILON"> F  </i>
   <i type="logical" name="LRPA"> F  </i>
   <i type="logical" name="LNABLA"> F  </i>
   <i type="logical" name="LVEL"> F  </i>
   <i type="int" name="KINTER">     0</i>
   <i name="CSHIFT">      0.10000000</i>
   <i name="OMEGAMAX">     -1.00000000</i>
   <i name="DEG_THRESHOLD">      0.00200000</i>
   <i name="RTIME">     -0.10000000</i>
   <i name="WPLASMAI">      0.00000000</i>
   <v name="DFIELD">      0.00000000      0.00000000      0.00000000</v>
   <v name="WPLASMA">      0.00000000      0.00000000      0.00000000      0.00000000      0.00000000      0.00000000      0.00000000      0.00000000      0.00000000</v>
  </separator>
  <separator name="orbital magnetization" >
   <i type="logical" name="NUCIND"> F  </i>
   <v name="MAGPOS">      0.00000000      0.00000000      0.00000000</v>
   <i type="logical" name="LNICSALL"> T  </i>
   <i type="logical" name="ORBITALMAG"> F  </i>
   <i type="logical" name="LMAGBLOCH"> F  </i>
   <i type="logical" name="LCHIMAG"> F  </i>
   <i type="logical" name="LGAUGE"> T  </i>
   <i type="int" name="MAGATOM">     0</i>
   <v name="MAGDIPOL">      0.00000000      0.00000000      0.00000000</v>
   <v name="AVECCONST">      0.00000000      0.00000000      0.00000000</v>
  </separator>
  <separator name="response functions" >
   <i type="logical" name="LADDER"> F  </i>
   <i type="logical" name="LRPAFORCE"> F  </i>
   <i type="logical" name="LFXC"> F  </i>
   <i type="logical" name="LHARTREE"> T  </i>
   <i type="int" name="IBSE">     0</i>
   <v type="int" name="KPOINT">    -1     0     0     0</v>
   <i type="logical" name="LTCTE"> F  </i>
   <i type="logical" name="LTETE"> F  </i>
   <i type="logical" name="LTRIPLET"> F  </i>
   <i type="logical" name="LFXCEPS"> F  </i>
   <i type="logical" name="LFXHEG"> F  </i>
   <i type="int" name="NATURALO">     2</i>
   <i type="logical" name="L2ORDER"> F  </i>
   <i type="logical" name="LMP2LT"> F  </i>
   <i type="logical" name="LUSEW"> F  </i>
   <i name="ENCUTGW">     -2.00000000</i>
   <i name="ENCUTGWSOFT">     -2.00000000</i>
   <i name="ENCUTLF">     -1.00000000</i>
   <i type="int" name="LMAXMP2">    -1</i>
   <i name="SCISSOR">      0.00000000</i>
   <i type="int" name="NOMEGA">     0</i>
   <i type="int" name="NOMEGAR">     0</i>
   <i type="int" name="NBANDSGW">    -1</i>
   <i type="int" name="NBANDSO">    -1</i>
   <i type="int" name="NBANDSV">    -1</i>
   <i type="int" name="NELM">   100</i>
   <i type="int" name="NELMHF">     1</i>
   <i type="int" name="DIM">     3</i>
   <i type="int" name="ANTIRES">     0</i>
   <i name="OMEGAMAX">    -30.00000000</i>
   <i name="OMEGAMIN">    -30.00000000</i>
   <i name="OMEGATL">   -200.00000000</i>
   <i type="int" name="OMEGAGRID">   140</i>
   <i name="CSHIFT">     -0.10000000</i>
   <i type="logical" name="SELFENERGY"> F  </i>
   <i type="logical" name="LSPECTRAL"> F  </i>
   <i type="logical" name="LSPECTRALGW"> F  </i>
   <i type="logical" name="LSINGLES"> F  </i>
   <i type="logical" name="LFERMIGW"> F  </i>
   <i type="logical" name="ODDONLYGW"> F  </i>
   <i type="logical" name="EVENONLYGW"> F  </i>
   <i type="int" name="NKREDLFX">     1</i>
   <i type="int" name="NKREDLFY">     1</i>
   <i type="int" name="NKREDLFZ">     1</i>
   <i type="int" name="MAXMEM">  2800</i>
   <i type="int" name="TELESCOPE">     0</i>
   <i type="int" name="TAUPAR">     1</i>
   <i type="int" name="OMEGAPAR">    -1</i>
   <i name="LAMBDA">      1.00000000</i>
  </separator>
  <separator name="External order field" >
   <i name="OFIELD_KAPPA">      0.00000000</i>
   <v name="OFIELD_K">      0.00000000      0.00000000      0.00000000</v>
   <i name="OFIELD_Q6_NEAR">      0.00000000</i>
   <i name="OFIELD_Q6_FAR">      0.00000000</i>
   <i name="OFIELD_A">      0.00000000</i>
  </separator>
 </parameters>
 <atominfo>
  <atoms>      96 </atoms>
  <types>       2 </types>
  <array name="atoms" >
   <dimension dim="1">ion</dimension>
   <field type="string">element</field>
   <field type="int">atomtype</field>
   <set>
    <rc><c>Ni</c><c>   1</c></rc>
    <rc><c>Ni</c><c>   1</c></rc>
    <rc><c>Ni</c><c>   1</c></rc>
    <rc><c>Ni</c><c>   1</c></rc>
    <rc><c>Ni</c><c>   1</c></rc>
    <rc><c>Ni</c><c>   1</c></rc>
    <rc><c>Ni</c><c>   1</c></rc>
    <rc><c>Ni</c><c>   1</c></rc>
    <rc><c>Ni</c><c>   1</c></rc>
    <rc><c>Ni</c><c>   1</c></rc>
    <rc><c>Ni</c><c>   1</c></rc>
    <rc><c>Ni</c><c>   1</c></rc>
    <rc><c>Ni</c><c>   1</c></rc>
    <rc><c>Ni</c><c>   1</c></rc>
    <rc><c>Ni</c><c>   1</c></rc>
    <rc><c>Ni</c><c>   1</c></rc>
    <rc><c>Ni</c><c>   1</c></rc>
    <rc><c>Ni</c><c>   1</c></rc>
    <rc><c>Ni</c><c>   1</c></rc>
    <rc><c>Ni</c><c>   1</c></rc>
    <rc><c>Ni</c><c>   1</c></rc>
    <rc><c>Ni</c><c>   1</c></rc>
    <rc><c>Ni</c><c>   1</c></rc>
    <rc><c>Ni</c><c>   1</c></rc>
    <rc><c>Ni</c><c>   1</c></rc>
    <rc><c>Ni</c><c>   1</c></rc>
    <rc><c>Ni</c><c>   1</c></rc>
    <rc><c>Ni</c><c>   1</c></rc>
    <rc><c>Ni</c><c>   1</c></rc>
    <rc><c>Ni</c><c>   1</c></rc>
    <rc><c>Ni</c><c>   1</c></rc>
    <rc><c>Ni</c><c>   1</c></rc>
    <rc><c>Ni</c><c>   1</c></rc>
    <rc><c>Ni</c><c>   1</c></rc>
    <rc><c>Ni</c><c>   1</c></rc>
    <rc><c>Ni</c><c>   1</c></rc>
    <rc><c>Ni</c><c>   1</c></rc>
    <rc><c>Ni</c><c>   1</c></rc>
    <rc><c>Ni</c><c>   1</c></rc>
    <rc><c>Ni</c><c>   1</c></rc>
    <rc><c>Ni</c><c>   1</c></rc>
    <rc><c>Ni</c><c>   1</c></rc>
    <rc><c>Ni</c><c>   1</c></rc>
    <rc><c>Ni</c><c>   1</c></rc>
    <rc><c>Ni</c><c>   1</c></rc>
    <rc><c>Ni</c><c>   1</c></rc>
    <rc><c>Ni</c><c>   1</c></rc>
    <rc><c>Ni</c><c>   1</c></rc>
    <rc><c>S </c><c>   2</c></rc>
    <rc><c>S </c><c>   2</c></rc>
    <rc><c>S </c><c>   2</c></rc>
    <rc><c>S </c><c>   2</c></rc>
    <rc><c>S </c><c>   2</c></rc>
    <rc><c>S </c><c>   2</c></rc>
    <rc><c>S </c><c>   2</c></rc>
    <rc><c>S </c><c>   2</c></rc>
    <rc><c>S </c><c>   2</c></rc>
    <rc><c>S </c><c>   2</c></rc>
    <rc><c>S </c><c>   2</c></rc>
    <rc><c>S </c><c>   2</c></rc>
    <rc><c>S </c><c>   2</c></rc>
    <rc><c>S </c><c>   2</c></rc>
    <rc><c>S </c><c>   2</c></rc>
    <rc><c>S </c><c>   2</c></rc>
    <rc><c>S </c><c>   2</c></rc>
    <rc><c>S </c><c>   2</c></rc>
    <rc><c>S </c><c>   2</c></rc>
    <rc><c>S </c><c>   2</c></rc>
    <rc><c>S </c><c>   2</c></rc>
    <rc><c>S </c><c>   2</c></rc>
    <rc><c>S </c><c>   2</c></rc>
    <rc><c>S </c><c>   2</c></rc>
    <rc><c>S </c><c>   2</c></rc>
    <rc><c>S </c><c>   2</c></rc>
    <rc><c>S </c><c>   2</c></rc>
    <rc><c>S </c><c>   2</c></rc>
    <rc><c>S </c><c>   2</c></rc>
    <rc><c>S </c><c>   2</c></rc>
    <rc><c>S </c><c>   2</c></rc>
    <rc><c>S </c><c>   2</c></rc>
    <rc><c>S </c><c>   2</c></rc>
    <rc><c>S </c><c>   2</c></rc>
    <rc><c>S </c><c>   2</c></rc>
    <rc><c>S </c><c>   2</c></rc>
    <rc><c>S </c><c>   2</c></rc>
    <rc><c>S </c><c>   2</c></rc>
    <rc><c>S </c><c>   2</c></rc>
    <rc><c>S </c><c>   2</c></rc>
    <rc><c>S </c><c>   2</c></rc>
    <rc><c>S </c><c>   2</c></rc>
    <rc><c>S </c><c>   2</c></rc>
    <rc><c>S </c><c>   2</c></rc>
    <rc><c>S </c><c>   2</c></rc>
    <rc><c>S </c><c>   2</c></rc>
    <rc><c>S </c><c>   2</c></rc>
    <rc><c>S </c><c>   2</c></rc>
   </set>
  </array>
  <array name="atomtypes" >
   <dimension dim="1">type</dimension>
   <field type="int">atomspertype</field>
   <field type="string">element</field>
   <field>mass</field>
   <field>valence</field>
   <field type="string">pseudopotential</field>
   <set>
    <rc><c>  48</c><c>Ni</c><c>     58.69000000</c><c>     16.00000000</c><c>  PAW_PBE Ni_pv 06Sep2000               </c></rc>
    <rc><c>  48</c><c>S </c><c>     32.06600000</c><c>      6.00000000</c><c>  PAW_PBE S 06Sep2000                   </c></rc>
   </set>
  </array>
 </atominfo>
 <structure name="initialpos" >
  <crystal>
   <varray name="basis" >
    <v>      11.25646304       0.00000000       0.00000000 </v>
    <v>       5.04456212      10.06282034       0.00000000 </v>
    <v>       0.00000000       0.00000000      21.74423184 </v>
   </varray>
   <i name="volume">   2463.00752351 </i>
   <varray name="rec_basis" >
    <v>       0.08883785      -0.04453504       0.00000000 </v>
    <v>       0.00000000       0.09937572       0.00000000 </v>
    <v>       0.00000000       0.00000000       0.04598921 </v>
   </varray>
  </crystal>
  <varray name="positions" >
   <v>       0.26092070       0.47878036       0.25332799 </v>
   <v>       0.35488056       0.38482049       0.38835497 </v>
   <v>       0.45410500       0.28559606       0.50501728 </v>
   <v>       0.16696083       0.07274024       0.11830101 </v>
   <v>       0.04938174       0.05472623       0.47268412 </v>
   <v>       0.27423906       0.33335899       0.08262607 </v>
   <v>       0.36819893       0.23939913       0.21765305 </v>
   <v>       0.46215880       0.14543926       0.35268003 </v>
   <v>       0.00030194       0.37150212       0.21765305 </v>
   <v>       0.09426181       0.27754226       0.35268003 </v>
   <v>       0.18497821       0.19032188       0.47268067 </v>
   <v>       0.40634206       0.46546199       0.08262607 </v>
   <v>       0.76092070       0.47878036       0.25332799 </v>
   <v>       0.85488056       0.38482049       0.38835497 </v>
   <v>       0.87359894       0.36610047       0.49716306 </v>
   <v>       0.65920497       0.08049609       0.15095029 </v>
   <v>       0.54343474       0.05298420       0.46718953 </v>
   <v>       0.78237387       0.33321808       0.10030007 </v>
   <v>       0.86819893       0.23939913       0.21765305 </v>
   <v>       0.96215880       0.14543926       0.35268003 </v>
   <v>       0.50030194       0.37150212       0.21765305 </v>
   <v>       0.59426181       0.27754226       0.35268003 </v>
   <v>       0.68671687       0.19626632       0.46718954 </v>
   <v>       0.90634206       0.46546199       0.08262607 </v>
   <v>       0.26092070       0.97878036       0.25332799 </v>
   <v>       0.35488056       0.88482049       0.38835497 </v>
   <v>       0.37360060       0.86610213       0.49716306 </v>
   <v>       0.16696083       0.57274024       0.11830101 </v>
   <v>       0.04340626       0.55297248       0.46717869 </v>
   <v>       0.27423907       0.83335899       0.08262607 </v>
   <v>       0.36819893       0.73939913       0.21765305 </v>
   <v>       0.46215880       0.64543926       0.35268003 </v>
   <v>       0.00030194       0.87150212       0.21765305 </v>
   <v>       0.09426181       0.77754226       0.35268003 </v>
   <v>       0.18672858       0.69629480       0.46717870 </v>
   <v>       0.40648298       0.95732718       0.10030007 </v>
   <v>       0.76092070       0.97878036       0.25332799 </v>
   <v>       0.85488056       0.88482049       0.38835497 </v>
   <v>       0.95413130       0.78556976       0.50501358 </v>
   <v>       0.66696083       0.57274024       0.11830101 </v>
   <v>       0.54937918       0.55472286       0.47268067 </v>
   <v>       0.79044579       0.79683756       0.10636344 </v>
   <v>       0.86819893       0.73939913       0.21765305 </v>
   <v>       0.96215880       0.64543926       0.35268003 </v>
   <v>       0.50030194       0.87150212       0.21765305 </v>
   <v>       0.59426181       0.77754226       0.35268003 </v>
   <v>       0.68497484       0.69031932       0.47268413 </v>
   <v>       0.94286348       0.94925527       0.10636344 </v>
   <v>       0.07287763       0.16682343       0.27005396 </v>
   <v>       0.16683750       0.07286357       0.40508094 </v>
   <v>       0.35184238       0.38785868       0.01233296 </v>
   <v>       0.47891775       0.26078330       0.13502698 </v>
   <v>       0.03023343       0.37768264       0.45050807 </v>
   <v>       0.43627354       0.47164251       0.31548109 </v>
   <v>       0.27215659       0.14983986       0.06734644 </v>
   <v>       0.34231368       0.06560239       0.18045411 </v>
   <v>       0.08289620       0.47908838       0.06413932 </v>
   <v>       0.17409868       0.39738738       0.18045411 </v>
   <v>       0.26805855       0.30342751       0.31548109 </v>
   <v>       0.36201842       0.20946765       0.45050807 </v>
   <v>       0.57287763       0.16682343       0.27005396 </v>
   <v>       0.66683750       0.07286357       0.40508094 </v>
   <v>       0.84777482       0.37190249       0.02031044 </v>
   <v>       0.97891775       0.26078330       0.13502698 </v>
   <v>       0.70995077       0.52974392       0.52746382 </v>
   <v>       0.53023343       0.37768264       0.45050807 </v>
   <v>       0.93627354       0.47164251       0.31548109 </v>
   <v>       0.84231368       0.06560239       0.18045411 </v>
   <v>       0.58986119       0.46754449       0.06734644 </v>
   <v>       0.67409868       0.39738738       0.18045411 </v>
   <v>       0.76805855       0.30342751       0.31548109 </v>
   <v>       0.86201842       0.20946765       0.45050807 </v>
   <v>       0.07287764       0.66682343       0.27005396 </v>
   <v>       0.16683750       0.57286357       0.40508094 </v>
   <v>       0.36779857       0.89192624       0.02031045 </v>
   <v>       0.47891775       0.76078330       0.13502698 </v>
   <v>       0.20995713       0.02975028       0.52746382 </v>
   <v>       0.03023342       0.87768264       0.45050807 </v>
   <v>       0.43627354       0.97164251       0.31548109 </v>
   <v>       0.26061268       0.65680486       0.06413931 </v>
   <v>       0.34231368       0.56560239       0.18045411 </v>
   <v>       0.08798013       0.98158554       0.06089800 </v>
   <v>       0.17409868       0.89738738       0.18045411 </v>
   <v>       0.26805855       0.80342751       0.31548109 </v>
   <v>       0.36201842       0.70946764       0.45050807 </v>
   <v>       0.57287764       0.66682343       0.27005396 </v>
   <v>       0.66683750       0.57286357       0.40508094 </v>
   <v>       0.75925007       0.98045098       0.07240231 </v>
   <v>       0.97891775       0.76078330       0.13502698 </v>
   <v>       0.53023342       0.87768264       0.45050807 </v>
   <v>       0.93627354       0.97164251       0.31548109 </v>
   <v>       0.75811553       0.65172092       0.06089799 </v>
   <v>       0.84231368       0.56560239       0.18045411 </v>
   <v>       0.67409868       0.89738738       0.18045411 </v>
   <v>       0.76805855       0.80342751       0.31548109 </v>
   <v>       0.86201842       0.70946764       0.45050807 </v>
  </varray>
 </structure>
 <calculation>
  <scstep>
   <time name="dav">   13.46   13.47</time>
   <time name="total">   13.97   13.99</time>
   <energy>
    <i name="alphaZ">   2684.99175279 </i>
    <i name="ewald"> 290854.48817489 </i>
    <i name="hartreedc">-454488.69546675 </i>
    <i name="XCdc">   4901.38563969 </i>
    <i name="pawpsdc"> 150306.04444553 </i>
    <i name="pawaedc">-156855.34918313 </i>
    <i name="eentropy">     -0.45344334 </i>
    <i name="bandstr">  -5209.87031155 </i>
    <i name="atom"> 181336.80673834 </i>
    <i name="e_fr_energy">  13529.34834648 </i>
    <i name="e_wo_entrp">  13529.80178982 </i>
    <i name="e_0_energy">  13529.57506815 </i>
   </energy>
  </scstep>
  <scstep>
   <time name="dav">   12.06   12.06</time>
   <time name="total">   12.06   12.07</time>
   <energy>
    <i name="e_fr_energy">    898.13836216 </i>
    <i name="e_wo_entrp">    898.90906095 </i>
    <i name="e_0_energy">    898.52371155 </i>
   </energy>
  </scstep>
  <scstep>
   <time name="dav">   13.13   13.13</time>
   <time name="total">   13.13   13.13</time>
   <energy>
    <i name="e_fr_energy">   -449.57287137 </i>
    <i name="e_wo_entrp">   -448.31191754 </i>
    <i name="e_0_energy">   -448.94239446 </i>
   </energy>
  </scstep>
  <scstep>
   <time name="dav">   12.77   12.82</time>
   <time name="total">   12.77   12.82</time>
   <energy>
    <i name="e_fr_energy">   -538.19744415 </i>
    <i name="e_wo_entrp">   -536.93308413 </i>
    <i name="e_0_energy">   -537.56526414 </i>
   </energy>
  </scstep>
  <scstep>
   <time name="dav">   14.37   14.37</time>
   <time name="total">   14.78   14.78</time>
   <energy>
    <i name="e_fr_energy">   -541.92321716 </i>
    <i name="e_wo_entrp">   -540.64402783 </i>
    <i name="e_0_energy">   -541.28362250 </i>
   </energy>
  </scstep>
  <scstep>
   <time name="dav">   13.67   13.67</time>
   <time name="total">   14.45   14.45</time>
   <energy>
    <i name="e_fr_energy">   -645.98998347 </i>
    <i name="e_wo_entrp">   -645.03583079 </i>
    <i name="e_0_energy">   -645.51290713 </i>
   </energy>
  </scstep>
  <scstep>
   <time name="dav">   13.31   13.32</time>
   <time name="total">   14.10   14.10</time>
   <energy>
    <i name="e_fr_energy">   -499.09306605 </i>
    <i name="e_wo_entrp">   -497.87871865 </i>
    <i name="e_0_energy">   -498.48589235 </i>
   </energy>
  </scstep>
  <scstep>
   <time name="dav">   14.47   14.47</time>
   <time name="total">   15.26   15.27</time>
   <energy>
    <i name="e_fr_energy">   -668.23564064 </i>
    <i name="e_wo_entrp">   -667.19293441 </i>
    <i name="e_0_energy">   -667.71428752 </i>
   </energy>
  </scstep>
  <scstep>
   <time name="dav">   15.23   15.24</time>
   <time name="total">   16.02   16.03</time>
   <energy>
    <i name="e_fr_energy">   -550.69976198 </i>
    <i name="e_wo_entrp">   -549.04157964 </i>
    <i name="e_0_energy">   -549.87067081 </i>
   </energy>
  </scstep>
  <scstep>
   <time name="dav">   14.85   14.85</time>
   <time name="total">   15.89   15.89</time>
   <energy>
    <i name="e_fr_energy">   -506.75252886 </i>
    <i name="e_wo_entrp">   -505.25838757 </i>
    <i name="e_0_energy">   -506.00545821 </i>
   </energy>
  </scstep>
  <scstep>
   <time name="dav">   14.78   14.79</time>
   <time name="total">   15.58   15.59</time>
   <energy>
    <i name="e_fr_energy">   -541.50330746 </i>
    <i name="e_wo_entrp">   -540.15308214 </i>
    <i name="e_0_energy">   -540.82819480 </i>
   </energy>
  </scstep>
  <scstep>
   <time name="dav">   14.71   14.72</time>
   <time name="total">   15.63   15.63</time>
   <energy>
    <i name="e_fr_energy">   -492.24028854 </i>
    <i name="e_wo_entrp">   -491.12776684 </i>
    <i name="e_0_energy">   -491.68402769 </i>
   </energy>
  </scstep>
  <scstep>
   <time name="dav">   15.36   15.37</time>
   <time name="total">   16.16   16.16</time>
   <energy>
    <i name="e_fr_energy">   -492.65961361 </i>
    <i name="e_wo_entrp">   -491.60045342 </i>
    <i name="e_0_energy">   -492.13003352 </i>
   </energy>
  </scstep>
  <scstep>
   <time name="dav">   14.15   14.15</time>
   <time name="total">   14.94   14.95</time>
   <energy>
    <i name="e_fr_energy">   -488.74564949 </i>
    <i name="e_wo_entrp">   -487.50489991 </i>
    <i name="e_0_energy">   -488.12527470 </i>
   </energy>
  </scstep>
  <scstep>
   <time name="dav">   14.99   15.00</time>
   <time name="total">   15.79   15.79</time>
   <energy>
    <i name="e_fr_energy">   -479.91647302 </i>
    <i name="e_wo_entrp">   -478.68290299 </i>
    <i name="e_0_energy">   -479.29968800 </i>
   </energy>
  </scstep>
  <scstep>
   <time name="dav">   14.99   14.99</time>
   <time name="total">   15.79   15.79</time>
   <energy>
    <i name="e_fr_energy">   -478.24486668 </i>
    <i name="e_wo_entrp">   -477.11379307 </i>
    <i name="e_0_energy">   -477.67932988 </i>
   </energy>
  </scstep>
  <scstep>
   <time name="dav">   14.40   14.40</time>
   <time name="total">   15.25   15.25</time>
   <energy>
    <i name="e_fr_energy">   -476.49608627 </i>
    <i name="e_wo_entrp">   -475.40165621 </i>
    <i name="e_0_energy">   -475.94887124 </i>
   </energy>
  </scstep>
  <scstep>
   <time name="dav">   14.94   14.95</time>
   <time name="total">   15.84   15.85</time>
   <energy>
    <i name="e_fr_energy">   -476.00938160 </i>
    <i name="e_wo_entrp">   -474.86678227 </i>
    <i name="e_0_energy">   -475.43808194 </i>
   </energy>
  </scstep>
  <scstep>
   <time name="dav">   14.51   14.51</time>
   <time name="total">   15.36   15.36</time>
   <energy>
    <i name="e_fr_energy">   -474.85249209 </i>
    <i name="e_wo_entrp">   -473.67608963 </i>
    <i name="e_0_energy">   -474.26429086 </i>
   </energy>
  </scstep>
  <scstep>
   <time name="dav">   15.00   15.00</time>
   <time name="total">   15.80   15.80</time>
   <energy>
    <i name="e_fr_energy">   -474.37288125 </i>
    <i name="e_wo_entrp">   -473.21982888 </i>
    <i name="e_0_energy">   -473.79635506 </i>
   </energy>
  </scstep>
  <scstep>
   <time name="dav">   15.12   15.13</time>
   <time name="total">   15.98   15.98</time>
   <energy>
    <i name="e_fr_energy">   -474.07716945 </i>
    <i name="e_wo_entrp">   -472.90074135 </i>
    <i name="e_0_energy">   -473.48895540 </i>
   </energy>
  </scstep>
  <scstep>
   <time name="dav">   14.99   14.99</time>
   <time name="total">   15.80   15.81</time>
   <energy>
    <i name="e_fr_energy">   -474.00482257 </i>
    <i name="e_wo_entrp">   -472.78902311 </i>
    <i name="e_0_energy">   -473.39692284 </i>
   </energy>
  </scstep>
  <scstep>
   <time name="dav">   14.70   14.70</time>
   <time name="total">   15.51   15.52</time>
   <energy>
    <i name="e_fr_energy">   -473.92366674 </i>
    <i name="e_wo_entrp">   -472.69419810 </i>
    <i name="e_0_energy">   -473.30893242 </i>
   </energy>
  </scstep>
  <scstep>
   <time name="dav">   14.66   14.66</time>
   <time name="total">   15.47   15.48</time>
   <energy>
    <i name="e_fr_energy">   -473.87952320 </i>
    <i name="e_wo_entrp">   -472.67283824 </i>
    <i name="e_0_energy">   -473.27618072 </i>
   </energy>
  </scstep>
  <scstep>
   <time name="dav">   14.88   14.88</time>
   <time name="total">   15.81   15.81</time>
   <energy>
    <i name="e_fr_energy">   -473.87637573 </i>
    <i name="e_wo_entrp">   -472.66868920 </i>
    <i name="e_0_energy">   -473.27253247 </i>
   </energy>
  </scstep>
  <scstep>
   <time name="dav">   14.00   14.00</time>
   <time name="total">   14.81   14.82</time>
   <energy>
    <i name="e_fr_energy">   -473.87263566 </i>
    <i name="e_wo_entrp">   -472.66148967 </i>
    <i name="e_0_energy">   -473.26706267 </i>
   </energy>
  </scstep>
  <scstep>
   <time name="dav">   14.97   14.97</time>
   <time name="total">   15.78   15.78</time>
   <energy>
    <i name="e_fr_energy">   -473.86997157 </i>
    <i name="e_wo_entrp">   -472.66117640 </i>
    <i name="e_0_energy">   -473.26557398 </i>
   </energy>
  </scstep>
  <scstep>
   <time name="dav">   14.94   14.95</time>
   <time name="total">   15.76   15.76</time>
   <energy>
    <i name="e_fr_energy">   -473.86226296 </i>
    <i name="e_wo_entrp">   -472.65680378 </i>
    <i name="e_0_energy">   -473.25953337 </i>
   </energy>
  </scstep>
  <scstep>
   <time name="dav">   14.99   14.99</time>
   <time name="total">   15.81   15.82</time>
   <energy>
    <i name="e_fr_energy">   -473.85813521 </i>
    <i name="e_wo_entrp">   -472.66411217 </i>
    <i name="e_0_energy">   -473.26112369 </i>
   </energy>
  </scstep>
  <scstep>
   <time name="dav">   14.48   14.48</time>
   <time name="total">   15.31   15.31</time>
   <energy>
    <i name="e_fr_energy">   -473.85707995 </i>
    <i name="e_wo_entrp">   -472.66569100 </i>
    <i name="e_0_energy">   -473.26138548 </i>
   </energy>
  </scstep>
  <scstep>
   <time name="dav">   13.82   13.82</time>
   <time name="total">   14.73   14.74</time>
   <energy>
    <i name="e_fr_energy">   -473.85555999 </i>
    <i name="e_wo_entrp">   -472.66385775 </i>
    <i name="e_0_energy">   -473.25970887 </i>
   </energy>
  </scstep>
  <scstep>
   <time name="dav">   12.99   12.99</time>
   <time name="total">   13.88   13.89</time>
   <energy>
    <i name="e_fr_energy">   -473.85481609 </i>
    <i name="e_wo_entrp">   -472.66382715 </i>
    <i name="e_0_energy">   -473.25932162 </i>
   </energy>
  </scstep>
  <scstep>
   <time name="dav">   11.69   11.70</time>
   <time name="total">   12.53   12.53</time>
   <energy>
    <i name="e_fr_energy">   -473.85451743 </i>
    <i name="e_wo_entrp">   -472.66231582 </i>
    <i name="e_0_energy">   -473.25841662 </i>
   </energy>
  </scstep>
  <scstep>
   <time name="dav">   14.11   14.11</time>
   <time name="total">   14.94   14.95</time>
   <energy>
    <i name="e_fr_energy">   -473.85409972 </i>
    <i name="e_wo_entrp">   -472.66189021 </i>
    <i name="e_0_energy">   -473.25799497 </i>
   </energy>
  </scstep>
  <scstep>
   <time name="dav">   13.59   13.60</time>
   <time name="total">   14.43   14.43</time>
   <energy>
    <i name="e_fr_energy">   -473.85428973 </i>
    <i name="e_wo_entrp">   -472.66207146 </i>
    <i name="e_0_energy">   -473.25818059 </i>
   </energy>
  </scstep>
  <scstep>
   <time name="dav">   12.34   12.34</time>
   <time name="total">   13.19   13.19</time>
   <energy>
    <i name="e_fr_energy">   -473.85447400 </i>
    <i name="e_wo_entrp">   -472.66026097 </i>
    <i name="e_0_energy">   -473.25736749 </i>
   </energy>
  </scstep>
  <scstep>
   <time name="dav">   10.34   10.34</time>
   <time name="total">   11.18   11.19</time>
   <energy>
    <i name="e_fr_energy">   -473.85462238 </i>
    <i name="e_wo_entrp">   -472.66078586 </i>
    <i name="e_0_energy">   -473.25770412 </i>
   </energy>
  </scstep>
  <scstep>
   <time name="dav">    8.33    8.33</time>
   <time name="total">    9.17    9.17</time>
   <energy>
    <i name="e_fr_energy">   -473.85486800 </i>
    <i name="e_wo_entrp">   -472.66116748 </i>
    <i name="e_0_energy">   -473.25801774 </i>
   </energy>
  </scstep>
  <scstep>
   <time name="dav">    8.40    8.40</time>
   <time name="total">    9.49    9.49</time>
   <energy>
    <i name="e_fr_energy">   -473.85513138 </i>
    <i name="e_wo_entrp">   -472.66165570 </i>
    <i name="e_0_energy">   -473.25839354 </i>
   </energy>
  </scstep>
  <scstep>
   <time name="dav">    8.74    8.74</time>
   <time name="total">    9.60    9.60</time>
   <energy>
    <i name="e_fr_energy">   -473.85563524 </i>
    <i name="e_wo_entrp">   -472.66213133 </i>
    <i name="e_0_energy">   -473.25888328 </i>
   </energy>
  </scstep>
  <scstep>
   <time name="dav">    8.43    8.43</time>
   <time name="total">    9.30    9.30</time>
   <energy>
    <i name="e_fr_energy">   -473.85613457 </i>
    <i name="e_wo_entrp">   -472.66274580 </i>
    <i name="e_0_energy">   -473.25944018 </i>
   </energy>
  </scstep>
  <scstep>
   <time name="dav">    8.32    8.32</time>
   <time name="total">    9.19    9.19</time>
   <energy>
    <i name="e_fr_energy">   -473.85646281 </i>
    <i name="e_wo_entrp">   -472.66308640 </i>
    <i name="e_0_energy">   -473.25977460 </i>
   </energy>
  </scstep>
  <scstep>
   <time name="dav">    8.43    8.44</time>
   <time name="total">    9.35    9.36</time>
   <energy>
    <i name="e_fr_energy">   -473.85662063 </i>
    <i name="e_wo_entrp">   -472.66313135 </i>
    <i name="e_0_energy">   -473.25987599 </i>
   </energy>
  </scstep>
  <scstep>
   <time name="dav">    8.10    8.10</time>
   <time name="total">    9.06    9.06</time>
   <energy>
    <i name="e_fr_energy">   -473.85685948 </i>
    <i name="e_wo_entrp">   -472.66328915 </i>
    <i name="e_0_energy">   -473.26007432 </i>
   </energy>
  </scstep>
  <scstep>
   <time name="dav">    8.54    8.54</time>
   <time name="total">    9.43    9.43</time>
   <energy>
    <i name="e_fr_energy">   -473.85726442 </i>
    <i name="e_wo_entrp">   -472.66373204 </i>
    <i name="e_0_energy">   -473.26049823 </i>
   </energy>
  </scstep>
  <scstep>
   <time name="dav">    8.20    8.20</time>
   <time name="total">    9.35    9.35</time>
   <energy>
    <i name="e_fr_energy">   -473.85746210 </i>
    <i name="e_wo_entrp">   -472.66388931 </i>
    <i name="e_0_energy">   -473.26067571 </i>
   </energy>
  </scstep>
  <scstep>
   <time name="dav">    8.30    8.30</time>
   <time name="total">    9.20    9.20</time>
   <energy>
    <i name="e_fr_energy">   -473.85766523 </i>
    <i name="e_wo_entrp">   -472.66422299 </i>
    <i name="e_0_energy">   -473.26094411 </i>
   </energy>
  </scstep>
  <scstep>
   <time name="dav">    8.37    8.37</time>
   <time name="total">    9.28    9.28</time>
   <energy>
    <i name="e_fr_energy">   -473.85777194 </i>
    <i name="e_wo_entrp">   -472.66438588 </i>
    <i name="e_0_energy">   -473.26107891 </i>
   </energy>
  </scstep>
  <scstep>
   <time name="dav">    8.28    8.28</time>
   <time name="total">    8.67    8.67</time>
   <energy>
    <i name="alphaZ">   2684.99175279 </i>
    <i name="ewald"> 290854.48817489 </i>
    <i name="hartreedc">-453412.42243990 </i>
    <i name="XCdc">   4860.06163060 </i>
    <i name="pawpsdc"> 183323.58406169 </i>
    <i name="pawaedc">-189974.31760369 </i>
    <i name="eentropy">     -1.19348179 </i>
    <i name="bandstr"> -20145.85667270 </i>
    <i name="atom"> 181336.80673834 </i>
    <i name="e_fr_energy">   -473.85783976 </i>
    <i name="e_wo_entrp">   -472.66435797 </i>
    <i name="e_0_energy">   -473.26109886 </i>
   </energy>
  </scstep>
  <structure>
   <crystal>
    <varray name="basis" >
     <v>      11.25646304       0.00000000       0.00000000 </v>
     <v>       5.04456212      10.06282034       0.00000000 </v>
     <v>       0.00000000       0.00000000      21.74423184 </v>
    </varray>
    <i name="volume">   2463.00752351 </i>
    <varray name="rec_basis" >
     <v>       0.08883785      -0.04453504       0.00000000 </v>
     <v>       0.00000000       0.09937572       0.00000000 </v>
     <v>       0.00000000       0.00000000       0.04598921 </v>
    </varray>
   </crystal>
   <varray name="positions" >
    <v>       0.26092070       0.47878036       0.25332799 </v>
    <v>       0.35488056       0.38482049       0.38835497 </v>
    <v>       0.45410500       0.28559606       0.50501728 </v>
    <v>       0.16696083       0.07274024       0.11830101 </v>
    <v>       0.04938174       0.05472623       0.47268412 </v>
    <v>       0.27423906       0.33335899       0.08262607 </v>
    <v>       0.36819893       0.23939913       0.21765305 </v>
    <v>       0.46215880       0.14543926       0.35268003 </v>
    <v>       0.00030194       0.37150212       0.21765305 </v>
    <v>       0.09426181       0.27754226       0.35268003 </v>
    <v>       0.18497821       0.19032188       0.47268067 </v>
    <v>       0.40634206       0.46546199       0.08262607 </v>
    <v>       0.76092070       0.47878036       0.25332799 </v>
    <v>       0.85488056       0.38482049       0.38835497 </v>
    <v>       0.87359894       0.36610047       0.49716306 </v>
    <v>       0.65920497       0.08049609       0.15095029 </v>
    <v>       0.54343474       0.05298420       0.46718953 </v>
    <v>       0.78237387       0.33321808       0.10030007 </v>
    <v>       0.86819893       0.23939913       0.21765305 </v>
    <v>       0.96215880       0.14543926       0.35268003 </v>
    <v>       0.50030194       0.37150212       0.21765305 </v>
    <v>       0.59426181       0.27754226       0.35268003 </v>
    <v>       0.68671687       0.19626632       0.46718954 </v>
    <v>       0.90634206       0.46546199       0.08262607 </v>
    <v>       0.26092070       0.97878036       0.25332799 </v>
    <v>       0.35488056       0.88482049       0.38835497 </v>
    <v>       0.37360060       0.86610213       0.49716306 </v>
    <v>       0.16696083       0.57274024       0.11830101 </v>
    <v>       0.04340626       0.55297248       0.46717869 </v>
    <v>       0.27423907       0.83335899       0.08262607 </v>
    <v>       0.36819893       0.73939913       0.21765305 </v>
    <v>       0.46215880       0.64543926       0.35268003 </v>
    <v>       0.00030194       0.87150212       0.21765305 </v>
    <v>       0.09426181       0.77754226       0.35268003 </v>
    <v>       0.18672858       0.69629480       0.46717870 </v>
    <v>       0.40648298       0.95732718       0.10030007 </v>
    <v>       0.76092070       0.97878036       0.25332799 </v>
    <v>       0.85488056       0.88482049       0.38835497 </v>
    <v>       0.95413130       0.78556976       0.50501358 </v>
    <v>       0.66696083       0.57274024       0.11830101 </v>
    <v>       0.54937918       0.55472286       0.47268067 </v>
    <v>       0.79044579       0.79683756       0.10636344 </v>
    <v>       0.86819893       0.73939913       0.21765305 </v>
    <v>       0.96215880       0.64543926       0.35268003 </v>
    <v>       0.50030194       0.87150212       0.21765305 </v>
    <v>       0.59426181       0.77754226       0.35268003 </v>
    <v>       0.68497484       0.69031932       0.47268413 </v>
    <v>       0.94286348       0.94925527       0.10636344 </v>
    <v>       0.07287763       0.16682343       0.27005396 </v>
    <v>       0.16683750       0.07286357       0.40508094 </v>
    <v>       0.35184238       0.38785868       0.01233296 </v>
    <v>       0.47891775       0.26078330       0.13502698 </v>
    <v>       0.03023343       0.37768264       0.45050807 </v>
    <v>       0.43627354       0.47164251       0.31548109 </v>
    <v>       0.27215659       0.14983986       0.06734644 </v>
    <v>       0.34231368       0.06560239       0.18045411 </v>
    <v>       0.08289620       0.47908838       0.06413932 </v>
    <v>       0.17409868       0.39738738       0.18045411 </v>
    <v>       0.26805855       0.30342751       0.31548109 </v>
    <v>       0.36201842       0.20946765       0.45050807 </v>
    <v>       0.57287763       0.16682343       0.27005396 </v>
    <v>       0.66683750       0.07286357       0.40508094 </v>
    <v>       0.84777482       0.37190249       0.02031044 </v>
    <v>       0.97891775       0.26078330       0.13502698 </v>
    <v>       0.70995077       0.52974392       0.52746382 </v>
    <v>       0.53023343       0.37768264       0.45050807 </v>
    <v>       0.93627354       0.47164251       0.31548109 </v>
    <v>       0.84231368       0.06560239       0.18045411 </v>
    <v>       0.58986119       0.46754449       0.06734644 </v>
    <v>       0.67409868       0.39738738       0.18045411 </v>
    <v>       0.76805855       0.30342751       0.31548109 </v>
    <v>       0.86201842       0.20946765       0.45050807 </v>
    <v>       0.07287764       0.66682343       0.27005396 </v>
    <v>       0.16683750       0.57286357       0.40508094 </v>
    <v>       0.36779857       0.89192624       0.02031045 </v>
    <v>       0.47891775       0.76078330       0.13502698 </v>
    <v>       0.20995713       0.02975028       0.52746382 </v>
    <v>       0.03023342       0.87768264       0.45050807 </v>
    <v>       0.43627354       0.97164251       0.31548109 </v>
    <v>       0.26061268       0.65680486       0.06413931 </v>
    <v>       0.34231368       0.56560239       0.18045411 </v>
    <v>       0.08798013       0.98158554       0.06089800 </v>
    <v>       0.17409868       0.89738738       0.18045411 </v>
    <v>       0.26805855       0.80342751       0.31548109 </v>
    <v>       0.36201842       0.70946764       0.45050807 </v>
    <v>       0.57287764       0.66682343       0.27005396 </v>
    <v>       0.66683750       0.57286357       0.40508094 </v>
    <v>       0.75925007       0.98045098       0.07240231 </v>
    <v>       0.97891775       0.76078330       0.13502698 </v>
    <v>       0.53023342       0.87768264       0.45050807 </v>
    <v>       0.93627354       0.97164251       0.31548109 </v>
    <v>       0.75811553       0.65172092       0.06089799 </v>
    <v>       0.84231368       0.56560239       0.18045411 </v>
    <v>       0.67409868       0.89738738       0.18045411 </v>
    <v>       0.76805855       0.80342751       0.31548109 </v>
    <v>       0.86201842       0.70946764       0.45050807 </v>
   </varray>
  </structure>
  <varray name="forces" >
   <v>       0.02215547      -0.06603306      -0.12179728 </v>
   <v>      -0.05740340       0.07428428      -0.00338563 </v>
   <v>       0.03226490      -0.07690644       1.18544168 </v>
   <v>      -0.58683860       0.61005326       2.08911388 </v>
   <v>      -0.90559545       0.06578870       0.56647156 </v>
   <v>      -0.52439242      -1.28452864       2.68349072 </v>
   <v>       0.02544470       0.21980774       0.14507129 </v>
   <v>      -0.09576183      -0.08774210      -0.20778326 </v>
   <v>      -0.08055635       0.07165859       0.22853111 </v>
   <v>      -0.02008382      -0.17742096      -0.01752365 </v>
   <v>       0.33716648       0.88907477       0.53714845 </v>
   <v>       1.38957869      -0.10197728       2.68253626 </v>
   <v>       0.19210791      -0.13170759      -0.10044877 </v>
   <v>      -0.09566540       0.11687179      -0.99451442 </v>
   <v>       0.47590561      -0.75430572       0.79264541 </v>
   <v>      -0.79171793       1.27608059      -0.18838254 </v>
   <v>       0.31968141      -0.28846106       1.03349807 </v>
   <v>      -0.68642573      -1.33625840       0.27535647 </v>
   <v>       0.04097664      -0.09359937       0.07557236 </v>
   <v>       0.15558813      -0.03243502      -0.04546577 </v>
   <v>      -0.20031306       0.06669473       0.15267766 </v>
   <v>       0.09751596       0.03183690      -0.21452079 </v>
   <v>       0.10699091      -0.41895417       1.02976490 </v>
   <v>       1.53952681      -0.34827999       2.25486116 </v>
   <v>       0.00445748      -0.24756917      -0.10041428 </v>
   <v>      -0.07818463       0.12757201      -0.99456003 </v>
   <v>       0.46255711      -0.76247505       0.79269743 </v>
   <v>      -0.26727041       0.42637645       2.00684474 </v>
   <v>       0.32087228      -0.27227223       1.00771031 </v>
   <v>      -0.37084684      -1.52909183       2.25591014 </v>
   <v>      -0.03257258       0.11495057       0.22094566 </v>
   <v>       0.14407635      -0.07638640      -0.01075720 </v>
   <v>       0.16217849      -0.08605111       0.46308737 </v>
   <v>      -0.00321969      -0.02937975      -0.22125222 </v>
   <v>       0.09241639      -0.41269813       1.00389013 </v>
   <v>       1.50722341       0.01824547       0.27317324 </v>
   <v>       0.07385134      -0.14992609       0.39034317 </v>
   <v>      -0.04375749       0.05212863       0.00263687 </v>
   <v>       0.03784277      -0.08583797       1.11251478 </v>
   <v>      -0.28829582       0.79448834       2.08903510 </v>
   <v>      -0.92515739       0.08588968       0.53924620 </v>
   <v>      -0.44094304      -0.45163235      -1.15697677 </v>
   <v>      -0.00034654      -0.17250254       0.45544089 </v>
   <v>       0.00409911      -0.02501613      -0.21455421 </v>
   <v>       0.07292834      -0.08756600       0.08320663 </v>
   <v>      -0.06467425      -0.16801680      -0.05216419 </v>
   <v>       0.34637132       0.86272491       0.56410364 </v>
   <v>       0.60299508       0.21282236      -1.15427260 </v>
   <v>       0.08089442      -0.05742940       0.09142923 </v>
   <v>       0.39881309      -0.69208321      -3.04504247 </v>
   <v>       0.24125952      -0.35170889      -4.48775291 </v>
   <v>       0.00453868      -0.01222866      -0.20924883 </v>
   <v>       0.06096348       0.57409950      -0.22550909 </v>
   <v>       0.01899343       0.04717802       0.07938749 </v>
   <v>       0.45290189       0.50490580      -2.30234365 </v>
   <v>       0.04827126       0.96122225       2.26240442 </v>
   <v>      -1.02837066       0.60204113      -2.27737378 </v>
   <v>      -0.02545656      -0.13348625       0.75203415 </v>
   <v>      -0.05132617       0.01332326       0.09877765 </v>
   <v>      -1.94071921       0.60935621      -0.52114314 </v>
   <v>       0.01504803      -0.00228954       0.22662099 </v>
   <v>       0.96663510      -1.53927562      -1.78511996 </v>
   <v>      -0.49315088      -1.01067026      -4.01582724 </v>
   <v>       0.97721270      -0.39316426       0.53252398 </v>
   <v>       0.32348892      -0.48668867       2.74264454 </v>
   <v>       0.33066956       2.00691679      -0.53054300 </v>
   <v>      -0.01865227       0.05546876      -0.15643763 </v>
   <v>       1.31270796       1.34576709       2.08900934 </v>
   <v>      -0.65339700      -0.18212070      -2.30112655 </v>
   <v>      -0.87731274       0.38618369       2.26500949 </v>
   <v>      -0.03177188       0.05765806       0.00009415 </v>
   <v>      -0.55726170       0.18985629      -0.26289002 </v>
   <v>       0.00532511       0.01343610      -0.01710751 </v>
   <v>       0.95372881      -1.51832514      -1.66342274 </v>
   <v>       1.13006823      -0.00972717      -4.00878970 </v>
   <v>      -0.09055215      -1.05245554       0.53265285 </v>
   <v>       0.30812681      -0.49712234       2.74297841 </v>
   <v>       0.36429473       2.02305586      -0.47660749 </v>
   <v>      -0.02934592       0.04960840      -0.01923241 </v>
   <v>      -0.07081997       1.18944842      -2.27292694 </v>
   <v>       0.13106020      -0.03364381       0.74919975 </v>
   <v>      -1.70200299       0.82503282      -2.65746802 </v>
   <v>       0.23214839      -0.34557953       0.85658705 </v>
   <v>      -0.04181326       0.05067798      -0.13703424 </v>
   <v>      -0.53893160       0.20916904      -0.21612302 </v>
   <v>       0.03483508      -0.08587124       0.09142150 </v>
   <v>       0.46332154      -0.65228535      -3.04505163 </v>
   <v>      -0.69106063       1.13972837      -3.20947828 </v>
   <v>       1.44526573      -2.34635222       0.91012914 </v>
   <v>       0.08636569       0.58185544      -0.27225552 </v>
   <v>      -0.03647398       0.00565667       0.02898324 </v>
   <v>       0.02668523       1.89933608      -2.65635007 </v>
   <v>       0.20510895      -0.35907883       0.85366680 </v>
   <v>      -1.78755218      -0.57256505       2.09134678 </v>
   <v>       0.01068864       0.04430139       0.04832506 </v>
   <v>      -1.97019979       0.58654983      -0.46721383 </v>
  </varray>
  <varray name="stress" >
   <v>      63.08522396       2.29996466      -0.87341938 </v>
   <v>       2.29996538      60.87836151       1.37646682 </v>
   <v>      -0.87341965       1.37646663      58.68206521 </v>
  </varray>
  <energy>
   <i name="e_fr_energy">   -473.85783976 </i>
   <i name="e_wo_entrp">   -473.26109886 </i>
   <i name="e_0_energy">     -1.19348179 </i>
  </energy>
  <time name="totalsc">  672.30  672.53</time>
  <eigenvalues>
   <array>
    <dimension dim="1">band</dimension>
    <dimension dim="2">kpoint</dimension>
    <dimension dim="3">spin</dimension>
    <field>eigene</field>
    <field>occ</field>
    <set>
     <set comment="spin 1">
      <set comment="kpoint 1">
       <r>  -63.0354    1.0000 </r>
       <r>  -63.0257    1.0000 </r>
       <r>  -63.0255    1.0000 </r>
       <r>  -63.0104    1.0000 </r>
       <r>  -62.9325    1.0000 </r>
       <r>  -62.9169    1.0000 </r>
       <r>  -62.9121    1.0000 </r>
       <r>  -62.9119    1.0000 </r>
       <r>  -62.8684    1.0000 </r>
       <r>  -62.8674    1.0000 </r>
       <r>  -62.8411    1.0000 </r>
       <r>  -62.8078    1.0000 </r>
       <r>  -62.8078    1.0000 </r>
       <r>  -62.8034    1.0000 </r>
       <r>  -62.8033    1.0000 </r>
       <r>  -62.7748    1.0000 </r>
       <r>  -62.7747    1.0000 </r>
       <r>  -62.7568    1.0000 </r>
       <r>  -62.7559    1.0000 </r>
       <r>  -62.7305    1.0000 </r>
       <r>  -62.7245    1.0000 </r>
       <r>  -62.7170    1.0000 </r>
       <r>  -62.6945    1.0000 </r>
       <r>  -62.6578    1.0000 </r>
       <r>  -62.6576    1.0000 </r>
       <r>  -62.6397    1.0000 </r>
       <r>  -62.6327    1.0000 </r>
       <r>  -62.5984    1.0000 </r>
       <r>  -62.5723    1.0000 </r>
       <r>  -62.5616    1.0000 </r>
       <r>  -62.5614    1.0000 </r>
       <r>  -62.5314    1.0000 </r>
       <r>  -62.5314    1.0000 </r>
       <r>  -62.5189    1.0000 </r>
       <r>  -62.5189    1.0000 </r>
       <r>  -62.4915    1.0000 </r>
       <r>  -62.4827    1.0000 </r>
       <r>  -62.4809    1.0000 </r>
       <r>  -62.4410    1.0000 </r>
       <r>  -62.4392    1.0000 </r>
       <r>  -62.4375    1.0000 </r>
       <r>  -62.4374    1.0000 </r>
       <r>  -62.4280    1.0000 </r>
       <r>  -62.4230    1.0000 </r>
       <r>  -62.4229    1.0000 </r>
       <r>  -62.4165    1.0000 </r>
       <r>  -62.4122    1.0000 </r>
       <r>  -62.4081    1.0000 </r>
       <r>  -62.3650    1.0000 </r>
       <r>  -62.3649    1.0000 </r>
       <r>  -62.3638    1.0000 </r>
       <r>  -62.3569    1.0000 </r>
       <r>  -62.3569    1.0000 </r>
       <r>  -62.3554    1.0000 </r>
       <r>  -62.3488    1.0000 </r>
       <r>  -62.3487    1.0000 </r>
       <r>  -62.3471    1.0000 </r>
       <r>  -62.3467    1.0000 </r>
       <r>  -62.3440    1.0000 </r>
       <r>  -62.3439    1.0000 </r>
       <r>  -62.3422    1.0000 </r>
       <r>  -62.3363    1.0000 </r>
       <r>  -62.3363    1.0000 </r>
       <r>  -62.3362    1.0000 </r>
       <r>  -62.3354    1.0000 </r>
       <r>  -62.3347    1.0000 </r>
       <r>  -62.3347    1.0000 </r>
       <r>  -62.3247    1.0000 </r>
       <r>  -62.3177    1.0000 </r>
       <r>  -62.3161    1.0000 </r>
       <r>  -62.3161    1.0000 </r>
       <r>  -62.3157    1.0000 </r>
       <r>  -62.3107    1.0000 </r>
       <r>  -62.3070    1.0000 </r>
       <r>  -62.3069    1.0000 </r>
       <r>  -62.3044    1.0000 </r>
       <r>  -62.3011    1.0000 </r>
       <r>  -62.3011    1.0000 </r>
       <r>  -62.2938    1.0000 </r>
       <r>  -62.2920    1.0000 </r>
       <r>  -62.2919    1.0000 </r>
       <r>  -62.2913    1.0000 </r>
       <r>  -62.2913    1.0000 </r>
       <r>  -62.2885    1.0000 </r>
       <r>  -62.2860    1.0000 </r>
       <r>  -62.2860    1.0000 </r>
       <r>  -62.2837    1.0000 </r>
       <r>  -62.2821    1.0000 </r>
       <r>  -62.2761    1.0000 </r>
       <r>  -62.2726    1.0000 </r>
       <r>  -62.2715    1.0000 </r>
       <r>  -62.2715    1.0000 </r>
       <r>  -62.2680    1.0000 </r>
       <r>  -62.2593    1.0000 </r>
       <r>  -62.2571    1.0000 </r>
       <r>  -62.2454    1.0000 </r>
       <r>  -62.2434    1.0000 </r>
       <r>  -62.2420    1.0000 </r>
       <r>  -62.2406    1.0000 </r>
       <r>  -62.2290    1.0000 </r>
       <r>  -62.2290    1.0000 </r>
       <r>  -62.2238    1.0000 </r>
       <r>  -62.1960    1.0000 </r>
       <r>  -62.1783    1.0000 </r>
       <r>  -62.1522    1.0000 </r>
       <r>  -62.1498    1.0000 </r>
       <r>  -62.1498    1.0000 </r>
       <r>  -62.1464    1.0000 </r>
       <r>  -62.1288    1.0000 </r>
       <r>  -62.1288    1.0000 </r>
       <r>  -62.1278    1.0000 </r>
       <r>  -62.1108    1.0000 </r>
       <r>  -62.1045    1.0000 </r>
       <r>  -62.1045    1.0000 </r>
       <r>  -62.1028    1.0000 </r>
       <r>  -62.0859    1.0000 </r>
       <r>  -62.0850    1.0000 </r>
       <r>  -62.0801    1.0000 </r>
       <r>  -62.0801    1.0000 </r>
       <r>  -62.0756    1.0000 </r>
       <r>  -62.0756    1.0000 </r>
       <r>  -62.0734    1.0000 </r>
       <r>  -62.0641    1.0000 </r>
       <r>  -62.0554    1.0000 </r>
       <r>  -62.0546    1.0000 </r>
       <r>  -62.0532    1.0000 </r>
       <r>  -62.0530    1.0000 </r>
       <r>  -62.0530    1.0000 </r>
       <r>  -62.0527    1.0000 </r>
       <r>  -62.0455    1.0000 </r>
       <r>  -62.0454    1.0000 </r>
       <r>  -62.0259    1.0000 </r>
       <r>  -62.0259    1.0000 </r>
       <r>  -62.0141    1.0000 </r>
       <r>  -62.0115    1.0000 </r>
       <r>  -62.0102    1.0000 </r>
       <r>  -61.9924    1.0000 </r>
       <r>  -61.9899    1.0000 </r>
       <r>  -61.7486    1.0000 </r>
       <r>  -61.7361    1.0000 </r>
       <r>  -61.5771    1.0000 </r>
       <r>  -61.5631    1.0000 </r>
       <r>  -61.5125    1.0000 </r>
       <r>  -61.5125    1.0000 </r>
       <r>  -14.2690    1.0000 </r>
       <r>  -13.9871    1.0000 </r>
       <r>  -13.7240    1.0000 </r>
       <r>  -13.5790    1.0000 </r>
       <r>  -13.5299    1.0000 </r>
       <r>  -13.3870    1.0000 </r>
       <r>  -13.3670    1.0000 </r>
       <r>  -13.2482    1.0000 </r>
       <r>  -13.1316    1.0000 </r>
       <r>  -13.0874    1.0000 </r>
       <r>  -13.0505    1.0000 </r>
       <r>  -12.9678    1.0000 </r>
       <r>  -12.9542    1.0000 </r>
       <r>  -12.8851    1.0000 </r>
       <r>  -12.8782    1.0000 </r>
       <r>  -12.6105    1.0000 </r>
       <r>  -12.5323    1.0000 </r>
       <r>  -12.5011    1.0000 </r>
       <r>  -12.4843    1.0000 </r>
       <r>  -12.4400    1.0000 </r>
       <r>  -12.4234    1.0000 </r>
       <r>  -12.3880    1.0000 </r>
       <r>  -12.3211    1.0000 </r>
       <r>  -12.2688    1.0000 </r>
       <r>  -12.2564    1.0000 </r>
       <r>  -12.2271    1.0000 </r>
       <r>  -12.2095    1.0000 </r>
       <r>  -12.1735    1.0000 </r>
       <r>  -12.1281    1.0000 </r>
       <r>  -12.0845    1.0000 </r>
       <r>  -12.0724    1.0000 </r>
       <r>  -11.9960    1.0000 </r>
       <r>  -11.8503    1.0000 </r>
       <r>  -11.8383    1.0000 </r>
       <r>  -11.7584    1.0000 </r>
       <r>  -11.6744    1.0000 </r>
       <r>  -11.6324    1.0000 </r>
       <r>  -11.6204    1.0000 </r>
       <r>  -11.5831    1.0000 </r>
       <r>  -11.5331    1.0000 </r>
       <r>  -11.4904    1.0000 </r>
       <r>  -11.4802    1.0000 </r>
       <r>  -11.4451    1.0000 </r>
       <r>  -11.3711    1.0000 </r>
       <r>  -11.2111    1.0000 </r>
       <r>  -11.0458    1.0000 </r>
       <r>  -10.8685    1.0000 </r>
       <r>  -10.8580    1.0000 </r>
       <r>   -5.9589    1.0000 </r>
       <r>   -5.9578    1.0000 </r>
       <r>   -5.9172    1.0000 </r>
       <r>   -5.8288    1.0000 </r>
       <r>   -5.7833    1.0000 </r>
       <r>   -5.7349    1.0000 </r>
       <r>   -5.7153    1.0000 </r>
       <r>   -5.6725    1.0000 </r>
       <r>   -5.5822    1.0000 </r>
       <r>   -5.4202    1.0000 </r>
       <r>   -5.2694    1.0000 </r>
       <r>   -5.2228    1.0000 </r>
       <r>   -5.1734    1.0000 </r>
       <r>   -5.1708    1.0000 </r>
       <r>   -5.1581    1.0000 </r>
       <r>   -5.0961    1.0000 </r>
       <r>   -5.0861    1.0000 </r>
       <r>   -5.0033    1.0000 </r>
       <r>   -4.9947    1.0000 </r>
       <r>   -4.9900    1.0000 </r>
       <r>   -4.9834    1.0000 </r>
       <r>   -4.9633    1.0000 </r>
       <r>   -4.9405    1.0000 </r>
       <r>   -4.9182    1.0000 </r>
       <r>   -4.8880    1.0000 </r>
       <r>   -4.8655    1.0000 </r>
       <r>   -4.8431    1.0000 </r>
       <r>   -4.7750    1.0000 </r>
       <r>   -4.7357    1.0000 </r>
       <r>   -4.7323    1.0000 </r>
       <r>   -4.6984    1.0000 </r>
       <r>   -4.6715    1.0000 </r>
       <r>   -4.6517    1.0000 </r>
       <r>   -4.6016    1.0000 </r>
       <r>   -4.5676    1.0000 </r>
       <r>   -4.5410    1.0000 </r>
       <r>   -4.4400    1.0000 </r>
       <r>   -4.4148    1.0000 </r>
       <r>   -4.3642    1.0000 </r>
       <r>   -4.2969    1.0000 </r>
       <r>   -4.2841    1.0000 </r>
       <r>   -4.2778    1.0000 </r>
       <r>   -4.2152    1.0000 </r>
       <r>   -4.1973    1.0000 </r>
       <r>   -4.1920    1.0000 </r>
       <r>   -4.1525    1.0000 </r>
       <r>   -4.1427    1.0000 </r>
       <r>   -4.0946    1.0000 </r>
       <r>   -4.0883    1.0000 </r>
       <r>   -4.0300    1.0000 </r>
       <r>   -4.0265    1.0000 </r>
       <r>   -4.0152    1.0000 </r>
       <r>   -3.9822    1.0000 </r>
       <r>   -3.9423    1.0000 </r>
       <r>   -3.9090    1.0000 </r>
       <r>   -3.8763    1.0000 </r>
       <r>   -3.8015    1.0000 </r>
       <r>   -3.7656    1.0000 </r>
       <r>   -3.7256    1.0000 </r>
       <r>   -3.6982    1.0000 </r>
       <r>   -3.6740    1.0000 </r>
       <r>   -3.6433    1.0000 </r>
       <r>   -3.5778    1.0000 </r>
       <r>   -3.5688    1.0000 </r>
       <r>   -3.5466    1.0000 </r>
       <r>   -3.5316    1.0000 </r>
       <r>   -3.4965    1.0000 </r>
       <r>   -3.4526    1.0000 </r>
       <r>   -3.4471    1.0000 </r>
       <r>   -3.4318    1.0000 </r>
       <r>   -3.4017    1.0000 </r>
       <r>   -3.3985    1.0000 </r>
       <r>   -3.3803    1.0000 </r>
       <r>   -3.3242    1.0000 </r>
       <r>   -3.3222    1.0000 </r>
       <r>   -3.2892    1.0000 </r>
       <r>   -3.2688    1.0000 </r>
       <r>   -3.2525    1.0000 </r>
       <r>   -3.2502    1.0000 </r>
       <r>   -3.2355    1.0000 </r>
       <r>   -3.2295    1.0000 </r>
       <r>   -3.1791    1.0000 </r>
       <r>   -3.1653    1.0000 </r>
       <r>   -3.1521    1.0000 </r>
       <r>   -3.1487    1.0000 </r>
       <r>   -3.1316    1.0000 </r>
       <r>   -3.0717    1.0000 </r>
       <r>   -3.0715    1.0000 </r>
       <r>   -3.0622    1.0000 </r>
       <r>   -3.0403    1.0000 </r>
       <r>   -3.0147    1.0000 </r>
       <r>   -2.9877    1.0000 </r>
       <r>   -2.9714    1.0000 </r>
       <r>   -2.9627    1.0000 </r>
       <r>   -2.9171    1.0000 </r>
       <r>   -2.8957    1.0000 </r>
       <r>   -2.8638    1.0000 </r>
       <r>   -2.8411    1.0000 </r>
       <r>   -2.8299    1.0000 </r>
       <r>   -2.8275    1.0000 </r>
       <r>   -2.8045    1.0000 </r>
       <r>   -2.7789    1.0000 </r>
       <r>   -2.7199    1.0000 </r>
       <r>   -2.7065    1.0000 </r>
       <r>   -2.7060    1.0000 </r>
       <r>   -2.6618    1.0000 </r>
       <r>   -2.6011    1.0000 </r>
       <r>   -2.6009    1.0000 </r>
       <r>   -2.5903    1.0000 </r>
       <r>   -2.5508    1.0000 </r>
       <r>   -2.5428    1.0000 </r>
       <r>   -2.5255    1.0000 </r>
       <r>   -2.5126    1.0000 </r>
       <r>   -2.5019    1.0000 </r>
       <r>   -2.4616    1.0000 </r>
       <r>   -2.4500    1.0000 </r>
       <r>   -2.4084    1.0000 </r>
       <r>   -2.4063    1.0000 </r>
       <r>   -2.3916    1.0000 </r>
       <r>   -2.3733    1.0000 </r>
       <r>   -2.3463    1.0000 </r>
       <r>   -2.3213    1.0000 </r>
       <r>   -2.2702    1.0000 </r>
       <r>   -2.2584    1.0000 </r>
       <r>   -2.2319    1.0000 </r>
       <r>   -2.1931    1.0000 </r>
       <r>   -2.1792    1.0000 </r>
       <r>   -2.1085    1.0000 </r>
       <r>   -2.1026    1.0000 </r>
       <r>   -2.0698    1.0000 </r>
       <r>   -1.9245    1.0000 </r>
       <r>   -1.8541    1.0000 </r>
       <r>   -1.8237    1.0000 </r>
       <r>   -1.7982    1.0000 </r>
       <r>   -1.7130    1.0000 </r>
       <r>   -1.6810    1.0000 </r>
       <r>   -1.6571    1.0000 </r>
       <r>   -1.6158    1.0000 </r>
       <r>   -1.5783    1.0000 </r>
       <r>   -1.5660    1.0000 </r>
       <r>   -1.5204    1.0000 </r>
       <r>   -1.4826    1.0000 </r>
       <r>   -1.4486    1.0000 </r>
       <r>   -1.4114    1.0000 </r>
       <r>   -1.3679    1.0000 </r>
       <r>   -1.3419    1.0000 </r>
       <r>   -1.3205    1.0000 </r>
       <r>   -1.2629    1.0000 </r>
       <r>   -1.2400    1.0000 </r>
       <r>   -1.2154    1.0000 </r>
       <r>   -1.2079    1.0000 </r>
       <r>   -1.1880    1.0000 </r>
       <r>   -1.1798    1.0000 </r>
       <r>   -1.1742    1.0000 </r>
       <r>   -1.1327    1.0000 </r>
       <r>   -1.1258    1.0000 </r>
       <r>   -1.0765    1.0000 </r>
       <r>   -1.0715    1.0000 </r>
       <r>   -1.0616    1.0000 </r>
       <r>   -1.0415    1.0000 </r>
       <r>   -1.0283    1.0000 </r>
       <r>   -1.0165    1.0000 </r>
       <r>   -0.9916    1.0000 </r>
       <r>   -0.9634    1.0000 </r>
       <r>   -0.9576    1.0000 </r>
       <r>   -0.9401    1.0000 </r>
       <r>   -0.9392    1.0000 </r>
       <r>   -0.9022    1.0000 </r>
       <r>   -0.8980    1.0000 </r>
       <r>   -0.8764    1.0000 </r>
       <r>   -0.8666    1.0000 </r>
       <r>   -0.8520    1.0000 </r>
       <r>   -0.8463    1.0000 </r>
       <r>   -0.8327    1.0000 </r>
       <r>   -0.8037    1.0000 </r>
       <r>   -0.7865    1.0000 </r>
       <r>   -0.7858    1.0000 </r>
       <r>   -0.7703    1.0000 </r>
       <r>   -0.7562    1.0000 </r>
       <r>   -0.7343    1.0000 </r>
       <r>   -0.7294    1.0000 </r>
       <r>   -0.7260    1.0000 </r>
       <r>   -0.6955    1.0000 </r>
       <r>   -0.6764    1.0000 </r>
       <r>   -0.6680    1.0000 </r>
       <r>   -0.6596    1.0000 </r>
       <r>   -0.6465    1.0000 </r>
       <r>   -0.6441    1.0000 </r>
       <r>   -0.6087    1.0000 </r>
       <r>   -0.5958    1.0000 </r>
       <r>   -0.5937    1.0000 </r>
       <r>   -0.5736    1.0000 </r>
       <r>   -0.5701    1.0000 </r>
       <r>   -0.5639    1.0000 </r>
       <r>   -0.5548    1.0000 </r>
       <r>   -0.5460    1.0000 </r>
       <r>   -0.5338    1.0000 </r>
       <r>   -0.5281    1.0000 </r>
       <r>   -0.5004    1.0000 </r>
       <r>   -0.4894    1.0000 </r>
       <r>   -0.4660    1.0000 </r>
       <r>   -0.4630    1.0000 </r>
       <r>   -0.4470    1.0000 </r>
       <r>   -0.4418    1.0000 </r>
       <r>   -0.4344    1.0000 </r>
       <r>   -0.4258    1.0000 </r>
       <r>   -0.4037    1.0000 </r>
       <r>   -0.3962    1.0000 </r>
       <r>   -0.3766    1.0000 </r>
       <r>   -0.3698    1.0000 </r>
       <r>   -0.3649    1.0000 </r>
       <r>   -0.3619    1.0000 </r>
       <r>   -0.3519    1.0000 </r>
       <r>   -0.3378    1.0000 </r>
       <r>   -0.3138    1.0000 </r>
       <r>   -0.2952    1.0000 </r>
       <r>   -0.2915    1.0000 </r>
       <r>   -0.2875    1.0000 </r>
       <r>   -0.2806    1.0000 </r>
       <r>   -0.2404    1.0000 </r>
       <r>   -0.2373    1.0000 </r>
       <r>   -0.2095    1.0000 </r>
       <r>   -0.2049    1.0000 </r>
       <r>   -0.2015    1.0000 </r>
       <r>   -0.1894    1.0000 </r>
       <r>   -0.1784    1.0000 </r>
       <r>   -0.1648    1.0000 </r>
       <r>   -0.1577    1.0000 </r>
       <r>   -0.1436    1.0000 </r>
       <r>   -0.1412    1.0000 </r>
       <r>   -0.1358    1.0000 </r>
       <r>   -0.1315    1.0000 </r>
       <r>   -0.1005    1.0000 </r>
       <r>   -0.0990    1.0000 </r>
       <r>   -0.0846    1.0000 </r>
       <r>   -0.0773    1.0000 </r>
       <r>   -0.0596    1.0000 </r>
       <r>   -0.0409    1.0000 </r>
       <r>   -0.0350    1.0000 </r>
       <r>   -0.0294    1.0000 </r>
       <r>   -0.0165    1.0000 </r>
       <r>   -0.0080    1.0000 </r>
[...]
       <r>   -58.5096     0.0000   288.0000 </r>
       <r>   -58.2490     0.0000   288.0000 </r>
       <r>   -57.9883     0.0000   288.0000 </r>
       <r>   -57.7277     0.0000   288.0000 </r>
       <r>   -57.4670     0.0000   288.0000 </r>
       <r>   -57.2064     0.0000   288.0000 </r>
       <r>   -56.9458     0.0000   288.0000 </r>
       <r>   -56.6851     0.0000   288.0000 </r>
       <r>   -56.4245     0.0000   288.0000 </r>
       <r>   -56.1638     0.0000   288.0000 </r>
       <r>   -55.9032     0.0000   288.0000 </r>
       <r>   -55.6425     0.0000   288.0000 </r>
       <r>   -55.3819     0.0000   288.0000 </r>
       <r>   -55.1212     0.0000   288.0000 </r>
       <r>   -54.8606     0.0000   288.0000 </r>
       <r>   -54.5999     0.0000   288.0000 </r>
       <r>   -54.3393     0.0000   288.0000 </r>
       <r>   -54.0787     0.0000   288.0000 </r>
       <r>   -53.8180     0.0000   288.0000 </r>
       <r>   -53.5574     0.0000   288.0000 </r>
       <r>   -53.2967     0.0000   288.0000 </r>
       <r>   -53.0361     0.0000   288.0000 </r>
       <r>   -52.7754     0.0000   288.0000 </r>
       <r>   -52.5148     0.0000   288.0000 </r>
       <r>   -52.2541     0.0000   288.0000 </r>
       <r>   -51.9935     0.0000   288.0000 </r>
       <r>   -51.7328     0.0000   288.0000 </r>
       <r>   -51.4722     0.0000   288.0000 </r>
       <r>   -51.2116     0.0000   288.0000 </r>
       <r>   -50.9509     0.0000   288.0000 </r>
       <r>   -50.6903     0.0000   288.0000 </r>
       <r>   -50.4296     0.0000   288.0000 </r>
       <r>   -50.1690     0.0000   288.0000 </r>
       <r>   -49.9083     0.0000   288.0000 </r>
       <r>   -49.6477     0.0000   288.0000 </r>
       <r>   -49.3870     0.0000   288.0000 </r>
       <r>   -49.1264     0.0000   288.0000 </r>
       <r>   -48.8658     0.0000   288.0000 </r>
       <r>   -48.6051     0.0000   288.0000 </r>
       <r>   -48.3445     0.0000   288.0000 </r>
       <r>   -48.0838     0.0000   288.0000 </r>
       <r>   -47.8232     0.0000   288.0000 </r>
       <r>   -47.5625     0.0000   288.0000 </r>
       <r>   -47.3019     0.0000   288.0000 </r>
       <r>   -47.0412     0.0000   288.0000 </r>
       <r>   -46.7806     0.0000   288.0000 </r>
       <r>   -46.5199     0.0000   288.0000 </r>
       <r>   -46.2593     0.0000   288.0000 </r>
       <r>   -45.9987     0.0000   288.0000 </r>
       <r>   -45.7380     0.0000   288.0000 </r>
       <r>   -45.4774     0.0000   288.0000 </r>
       <r>   -45.2167     0.0000   288.0000 </r>
       <r>   -44.9561     0.0000   288.0000 </r>
       <r>   -44.6954     0.0000   288.0000 </r>
       <r>   -44.4348     0.0000   288.0000 </r>
       <r>   -44.1741     0.0000   288.0000 </r>
       <r>   -43.9135     0.0000   288.0000 </r>
       <r>   -43.6528     0.0000   288.0000 </r>
       <r>   -43.3922     0.0000   288.0000 </r>
       <r>   -43.1316     0.0000   288.0000 </r>
       <r>   -42.8709     0.0000   288.0000 </r>
       <r>   -42.6103     0.0000   288.0000 </r>
       <r>   -42.3496     0.0000   288.0000 </r>
       <r>   -42.0890     0.0000   288.0000 </r>
       <r>   -41.8283     0.0000   288.0000 </r>
       <r>   -41.5677     0.0000   288.0000 </r>
       <r>   -41.3070     0.0000   288.0000 </r>
       <r>   -41.0464     0.0000   288.0000 </r>
       <r>   -40.7857     0.0000   288.0000 </r>
       <r>   -40.5251     0.0000   288.0000 </r>
       <r>   -40.2645     0.0000   288.0000 </r>
       <r>   -40.0038     0.0000   288.0000 </r>
       <r>   -39.7432     0.0000   288.0000 </r>
       <r>   -39.4825     0.0000   288.0000 </r>
       <r>   -39.2219     0.0000   288.0000 </r>
       <r>   -38.9612     0.0000   288.0000 </r>
       <r>   -38.7006     0.0000   288.0000 </r>
       <r>   -38.4399     0.0000   288.0000 </r>
       <r>   -38.1793     0.0000   288.0000 </r>
       <r>   -37.9186     0.0000   288.0000 </r>
       <r>   -37.6580     0.0000   288.0000 </r>
       <r>   -37.3974     0.0000   288.0000 </r>
       <r>   -37.1367     0.0000   288.0000 </r>
       <r>   -36.8761     0.0000   288.0000 </r>
       <r>   -36.6154     0.0000   288.0000 </r>
       <r>   -36.3548     0.0000   288.0000 </r>
       <r>   -36.0941     0.0000   288.0000 </r>
       <r>   -35.8335     0.0000   288.0000 </r>
       <r>   -35.5728     0.0000   288.0000 </r>
       <r>   -35.3122     0.0000   288.0000 </r>
       <r>   -35.0516     0.0000   288.0000 </r>
       <r>   -34.7909     0.0000   288.0000 </r>
       <r>   -34.5303     0.0000   288.0000 </r>
       <r>   -34.2696     0.0000   288.0000 </r>
       <r>   -34.0090     0.0000   288.0000 </r>
       <r>   -33.7483     0.0000   288.0000 </r>
       <r>   -33.4877     0.0000   288.0000 </r>
       <r>   -33.2270     0.0000   288.0000 </r>
       <r>   -32.9664     0.0000   288.0000 </r>
       <r>   -32.7057     0.0000   288.0000 </r>
       <r>   -32.4451     0.0000   288.0000 </r>
       <r>   -32.1845     0.0000   288.0000 </r>
       <r>   -31.9238     0.0000   288.0000 </r>
       <r>   -31.6632     0.0000   288.0000 </r>
       <r>   -31.4025     0.0000   288.0000 </r>
       <r>   -31.1419     0.0000   288.0000 </r>
       <r>   -30.8812     0.0000   288.0000 </r>
       <r>   -30.6206     0.0000   288.0000 </r>
       <r>   -30.3599     0.0000   288.0000 </r>
       <r>   -30.0993     0.0000   288.0000 </r>
       <r>   -29.8386     0.0000   288.0000 </r>
       <r>   -29.5780     0.0000   288.0000 </r>
       <r>   -29.3174     0.0000   288.0000 </r>
       <r>   -29.0567     0.0000   288.0000 </r>
       <r>   -28.7961     0.0000   288.0000 </r>
       <r>   -28.5354     0.0000   288.0000 </r>
       <r>   -28.2748     0.0000   288.0000 </r>
       <r>   -28.0141     0.0000   288.0000 </r>
       <r>   -27.7535     0.0000   288.0000 </r>
       <r>   -27.4928     0.0000   288.0000 </r>
       <r>   -27.2322     0.0000   288.0000 </r>
       <r>   -26.9715     0.0000   288.0000 </r>
       <r>   -26.7109     0.0000   288.0000 </r>
       <r>   -26.4503     0.0000   288.0000 </r>
       <r>   -26.1896     0.0000   288.0000 </r>
       <r>   -25.9290     0.0000   288.0000 </r>
       <r>   -25.6683     0.0000   288.0000 </r>
       <r>   -25.4077     0.0000   288.0000 </r>
       <r>   -25.1470     0.0000   288.0000 </r>
       <r>   -24.8864     0.0000   288.0000 </r>
       <r>   -24.6257     0.0000   288.0000 </r>
       <r>   -24.3651     0.0000   288.0000 </r>
       <r>   -24.1045     0.0000   288.0000 </r>
       <r>   -23.8438     0.0000   288.0000 </r>
       <r>   -23.5832     0.0000   288.0000 </r>
       <r>   -23.3225     0.0000   288.0000 </r>
       <r>   -23.0619     0.0000   288.0000 </r>
       <r>   -22.8012     0.0000   288.0000 </r>
       <r>   -22.5406     0.0000   288.0000 </r>
       <r>   -22.2799     0.0000   288.0000 </r>
       <r>   -22.0193     0.0000   288.0000 </r>
       <r>   -21.7586     0.0000   288.0000 </r>
       <r>   -21.4980     0.0000   288.0000 </r>
       <r>   -21.2374     0.0000   288.0000 </r>
       <r>   -20.9767     0.0000   288.0000 </r>
       <r>   -20.7161     0.0000   288.0000 </r>
       <r>   -20.4554     0.0000   288.0000 </r>
       <r>   -20.1948     0.0000   288.0000 </r>
       <r>   -19.9341     0.0000   288.0000 </r>
       <r>   -19.6735     0.0000   288.0000 </r>
       <r>   -19.4128     0.0000   288.0000 </r>
       <r>   -19.1522     0.0000   288.0000 </r>
       <r>   -18.8915     0.0000   288.0000 </r>
       <r>   -18.6309     0.0000   288.0000 </r>
       <r>   -18.3703     0.0000   288.0000 </r>
       <r>   -18.1096     0.0000   288.0000 </r>
       <r>   -17.8490     0.0000   288.0000 </r>
       <r>   -17.5883     0.0000   288.0000 </r>
       <r>   -17.3277     0.0000   288.0000 </r>
       <r>   -17.0670     0.0000   288.0000 </r>
       <r>   -16.8064     0.0000   288.0000 </r>
       <r>   -16.5457     0.0000   288.0000 </r>
       <r>   -16.2851     0.0000   288.0000 </r>
       <r>   -16.0244     0.0000   288.0000 </r>
       <r>   -15.7638     0.0000   288.0000 </r>
       <r>   -15.5032     0.0000   288.0000 </r>
       <r>   -15.2425     0.0000   288.0000 </r>
       <r>   -14.9819     0.0000   288.0000 </r>
       <r>   -14.7212     0.0053   288.0014 </r>
       <r>   -14.4606     0.6709   288.1762 </r>
       <r>   -14.1999     5.1081   289.5076 </r>
       <r>   -13.9393     7.2131   291.3877 </r>
       <r>   -13.6786    10.2734   294.0654 </r>
       <r>   -13.4180    19.4498   299.1349 </r>
       <r>   -13.1573    24.7478   305.5853 </r>
       <r>   -12.8967    32.3960   314.0292 </r>
       <r>   -12.6361    23.5111   320.1572 </r>
       <r>   -12.3754    41.2473   330.9081 </r>
       <r>   -12.1148    53.0304   344.7302 </r>
       <r>   -11.8541    36.5632   354.2603 </r>
       <r>   -11.5935    38.5760   364.3149 </r>
       <r>   -11.3328    38.4171   374.3282 </r>
       <r>   -11.0722    16.9800   378.7539 </r>
       <r>   -10.8115    14.2486   382.4678 </r>
       <r>   -10.5509     5.6673   383.9449 </r>
       <r>   -10.2903     0.2110   383.9999 </r>
       <r>   -10.0296     0.0004   384.0000 </r>
       <r>    -9.7690     0.0000   384.0000 </r>
       <r>    -9.5083     0.0000   384.0000 </r>
       <r>    -9.2477     0.0000   384.0000 </r>
       <r>    -8.9870     0.0000   384.0000 </r>
       <r>    -8.7264     0.0000   384.0000 </r>
       <r>    -8.4657     0.0000   384.0000 </r>
       <r>    -8.2051     0.0000   384.0000 </r>
       <r>    -7.9444     0.0000   384.0000 </r>
       <r>    -7.6838     0.0000   384.0000 </r>
       <r>    -7.4232     0.0000   384.0000 </r>
       <r>    -7.1625     0.0000   384.0000 </r>
       <r>    -6.9019     0.0000   384.0000 </r>
       <r>    -6.6412     0.0000   384.0000 </r>
       <r>    -6.3806     0.0262   384.0068 </r>
       <r>    -6.1199     2.7651   384.7276 </r>
       <r>    -5.8593    22.9049   390.6976 </r>
       <r>    -5.5986    33.6266   399.4622 </r>
       <r>    -5.3380    22.3585   405.2899 </r>
       <r>    -5.0773    47.9716   417.7934 </r>
       <r>    -4.8167    72.7407   436.7530 </r>
       <r>    -4.5561    60.3046   452.4711 </r>
       <r>    -4.2954    51.7015   465.9468 </r>
       <r>    -4.0348    68.0835   483.6925 </r>
       <r>    -3.7741    60.2987   499.4091 </r>
       <r>    -3.5135    66.2322   516.6722 </r>
       <r>    -3.2528    91.6077   540.5493 </r>
       <r>    -2.9922    98.9319   566.3354 </r>
       <r>    -2.7315    88.0592   589.2876 </r>
       <r>    -2.4709    88.0397   612.2348 </r>
       <r>    -2.2102    79.2399   632.8883 </r>
       <r>    -1.9496    46.4643   644.9990 </r>
       <r>    -1.6890    41.3305   655.7715 </r>
       <r>    -1.4283    56.3324   670.4543 </r>
       <r>    -1.1677    78.0411   690.7954 </r>
       <r>    -0.9070   114.7875   720.7142 </r>
       <r>    -0.6464   143.1636   758.0291 </r>
       <r>    -0.3857   164.3100   800.8557 </r>
       <r>    -0.1251   173.2104   846.0022 </r>
       <r>     0.1356   181.3876   893.2800 </r>
       <r>     0.3962   162.2316   935.5649 </r>
       <r>     0.6568   131.8776   969.9382 </r>
       <r>     0.9175   105.7358   997.4977 </r>
       <r>     1.1781    79.7934  1018.2955 </r>
       <r>     1.4388    75.3774  1037.9423 </r>
       <r>     1.6994    64.0123  1054.6268 </r>
       <r>     1.9601    57.7853  1069.6883 </r>
       <r>     2.2207    56.1254  1084.3171 </r>
       <r>     2.4814    66.5570  1101.6648 </r>
       <r>     2.7420    76.1010  1121.5002 </r>
       <r>     3.0027    58.0569  1136.6325 </r>
       <r>     3.2633    33.0537  1145.2478 </r>
       <r>     3.5239    14.2412  1148.9597 </r>
       <r>     3.7846    15.0766  1152.8893 </r>
       <r>     4.0452     8.6335  1155.1396 </r>
       <r>     4.3059     4.3930  1156.2846 </r>
       <r>     4.5665     5.1164  1157.6182 </r>
       <r>     4.8272     3.9294  1158.6424 </r>
       <r>     5.0878    12.3912  1161.8721 </r>
       <r>     5.3485    17.1829  1166.3507 </r>
       <r>     5.6091    19.3356  1171.3905 </r>
       <r>     5.8698    20.0519  1176.6169 </r>
       <r>     6.1304    27.7024  1183.8374 </r>
       <r>     6.3910    32.4470  1192.2946 </r>
       <r>     6.6517    27.1311  1199.3662 </r>
       <r>     6.9123    30.7977  1207.3934 </r>
       <r>     7.1730    41.2619  1218.1482 </r>
       <r>     7.4336    56.1114  1232.7733 </r>
       <r>     7.6943    52.5486  1246.4699 </r>
       <r>     7.9549    54.6248  1260.7076 </r>
       <r>     8.2156    25.8509  1267.4455 </r>
       <r>     8.4762     2.1122  1267.9961 </r>
       <r>     8.7369     0.0151  1268.0000 </r>
       <r>     8.9975     0.0000  1268.0000 </r>
       <r>     9.2581     0.0000  1268.0000 </r>
       <r>     9.5188     0.0000  1268.0000 </r>
       <r>     9.7794     0.0000  1268.0000 </r>
       <r>    10.0401     0.0000  1268.0000 </r>
       <r>    10.3007     0.0000  1268.0000 </r>
       <r>    10.5614     0.0000  1268.0000 </r>
       <r>    10.8220     0.0000  1268.0000 </r>
       <r>    11.0827     0.0000  1268.0000 </r>
       <r>    11.3433     0.0000  1268.0000 </r>
       <r>    11.6040     0.0000  1268.0000 </r>
      </set>
     </set>
    </array>
   </total>
  </dos>
 </calculation>
 <structure name="finalpos" >
  <crystal>
   <varray name="basis" >
    <v>      11.25646304       0.00000000       0.00000000 </v>
    <v>       5.04456212      10.06282034       0.00000000 </v>
    <v>       0.00000000       0.00000000      21.74423184 </v>
   </varray>
   <i name="volume">   2463.00752351 </i>
   <varray name="rec_basis" >
    <v>       0.08883785      -0.04453504       0.00000000 </v>
    <v>       0.00000000       0.09937572       0.00000000 </v>
    <v>       0.00000000       0.00000000       0.04598921 </v>
   </varray>
  </crystal>
  <varray name="positions" >
   <v>       0.26092070       0.47878036       0.25332799 </v>
   <v>       0.35488056       0.38482049       0.38835497 </v>
   <v>       0.45410500       0.28559606       0.50501728 </v>
   <v>       0.16696083       0.07274024       0.11830101 </v>
   <v>       0.04938174       0.05472623       0.47268412 </v>
   <v>       0.27423906       0.33335899       0.08262607 </v>
   <v>       0.36819893       0.23939913       0.21765305 </v>
   <v>       0.46215880       0.14543926       0.35268003 </v>
   <v>       0.00030194       0.37150212       0.21765305 </v>
   <v>       0.09426181       0.27754226       0.35268003 </v>
   <v>       0.18497821       0.19032188       0.47268067 </v>
   <v>       0.40634206       0.46546199       0.08262607 </v>
   <v>       0.76092070       0.47878036       0.25332799 </v>
   <v>       0.85488056       0.38482049       0.38835497 </v>
   <v>       0.87359894       0.36610047       0.49716306 </v>
   <v>       0.65920497       0.08049609       0.15095029 </v>
   <v>       0.54343474       0.05298420       0.46718953 </v>
   <v>       0.78237387       0.33321808       0.10030007 </v>
   <v>       0.86819893       0.23939913       0.21765305 </v>
   <v>       0.96215880       0.14543926       0.35268003 </v>
   <v>       0.50030194       0.37150212       0.21765305 </v>
   <v>       0.59426181       0.27754226       0.35268003 </v>
   <v>       0.68671687       0.19626632       0.46718954 </v>
   <v>       0.90634206       0.46546199       0.08262607 </v>
   <v>       0.26092070       0.97878036       0.25332799 </v>
   <v>       0.35488056       0.88482049       0.38835497 </v>
   <v>       0.37360060       0.86610213       0.49716306 </v>
   <v>       0.16696083       0.57274024       0.11830101 </v>
   <v>       0.04340626       0.55297248       0.46717869 </v>
   <v>       0.27423907       0.83335899       0.08262607 </v>
   <v>       0.36819893       0.73939913       0.21765305 </v>
   <v>       0.46215880       0.64543926       0.35268003 </v>
   <v>       0.00030194       0.87150212       0.21765305 </v>
   <v>       0.09426181       0.77754226       0.35268003 </v>
   <v>       0.18672858       0.69629480       0.46717870 </v>
   <v>       0.40648298       0.95732718       0.10030007 </v>
   <v>       0.76092070       0.97878036       0.25332799 </v>
   <v>       0.85488056       0.88482049       0.38835497 </v>
   <v>       0.95413130       0.78556976       0.50501358 </v>
   <v>       0.66696083       0.57274024       0.11830101 </v>
   <v>       0.54937918       0.55472286       0.47268067 </v>
   <v>       0.79044579       0.79683756       0.10636344 </v>
   <v>       0.86819893       0.73939913       0.21765305 </v>
   <v>       0.96215880       0.64543926       0.35268003 </v>
   <v>       0.50030194       0.87150212       0.21765305 </v>
   <v>       0.59426181       0.77754226       0.35268003 </v>
   <v>       0.68497484       0.69031932       0.47268413 </v>
   <v>       0.94286348       0.94925527       0.10636344 </v>
   <v>       0.07287763       0.16682343       0.27005396 </v>
   <v>       0.16683750       0.07286357       0.40508094 </v>
   <v>       0.35184238       0.38785868       0.01233296 </v>
   <v>       0.47891775       0.26078330       0.13502698 </v>
   <v>       0.03023343       0.37768264       0.45050807 </v>
   <v>       0.43627354       0.47164251       0.31548109 </v>
   <v>       0.27215659       0.14983986       0.06734644 </v>
   <v>       0.34231368       0.06560239       0.18045411 </v>
   <v>       0.08289620       0.47908838       0.06413932 </v>
   <v>       0.17409868       0.39738738       0.18045411 </v>
   <v>       0.26805855       0.30342751       0.31548109 </v>
   <v>       0.36201842       0.20946765       0.45050807 </v>
   <v>       0.57287763       0.16682343       0.27005396 </v>
   <v>       0.66683750       0.07286357       0.40508094 </v>
   <v>       0.84777482       0.37190249       0.02031044 </v>
   <v>       0.97891775       0.26078330       0.13502698 </v>
   <v>       0.70995077       0.52974392       0.52746382 </v>
   <v>       0.53023343       0.37768264       0.45050807 </v>
   <v>       0.93627354       0.47164251       0.31548109 </v>
   <v>       0.84231368       0.06560239       0.18045411 </v>
   <v>       0.58986119       0.46754449       0.06734644 </v>
   <v>       0.67409868       0.39738738       0.18045411 </v>
   <v>       0.76805855       0.30342751       0.31548109 </v>
   <v>       0.86201842       0.20946765       0.45050807 </v>
   <v>       0.07287764       0.66682343       0.27005396 </v>
   <v>       0.16683750       0.57286357       0.40508094 </v>
   <v>       0.36779857       0.89192624       0.02031045 </v>
   <v>       0.47891775       0.76078330       0.13502698 </v>
   <v>       0.20995713       0.02975028       0.52746382 </v>
   <v>       0.03023342       0.87768264       0.45050807 </v>
   <v>       0.43627354       0.97164251       0.31548109 </v>
   <v>       0.26061268       0.65680486       0.06413931 </v>
   <v>       0.34231368       0.56560239       0.18045411 </v>
   <v>       0.08798013       0.98158554       0.06089800 </v>
   <v>       0.17409868       0.89738738       0.18045411 </v>
   <v>       0.26805855       0.80342751       0.31548109 </v>
   <v>       0.36201842       0.70946764       0.45050807 </v>
   <v>       0.57287764       0.66682343       0.27005396 </v>
   <v>       0.66683750       0.57286357       0.40508094 </v>
   <v>       0.75925007       0.98045098       0.07240231 </v>
   <v>       0.97891775       0.76078330       0.13502698 </v>
   <v>       0.53023342       0.87768264       0.45050807 </v>
   <v>       0.93627354       0.97164251       0.31548109 </v>
   <v>       0.75811553       0.65172092       0.06089799 </v>
   <v>       0.84231368       0.56560239       0.18045411 </v>
   <v>       0.67409868       0.89738738       0.18045411 </v>
   <v>       0.76805855       0.80342751       0.31548109 </v>
   <v>       0.86201842       0.70946764       0.45050807 </v>
  </varray>
 </structure>
</modeling>
