"Millerite NiS"                         
           1
    11.256463    0.000000    0.000000
     5.044562   10.062820    0.000000
     0.000000    0.000000   21.744232
   Ty   Ty
  48  48
Direct configuration=     1
   0.26092070  0.47878036  0.25332799
   0.35488056  0.38482049  0.38835497
   0.45410500  0.28559606  0.50501728
   0.16696083  0.07274024  0.11830101
   0.04938174  0.05472623  0.47268412
   0.27423906  0.33335899  0.08262607
   0.36819893  0.23939913  0.21765305
   0.46215880  0.14543926  0.35268003
   0.00030194  0.37150212  0.21765305
   0.09426181  0.27754226  0.35268003
   0.18497821  0.19032188  0.47268067
   0.40634206  0.46546199  0.08262607
   0.76092070  0.47878036  0.25332799
   0.85488056  0.38482049  0.38835497
   0.87359894  0.36610047  0.49716306
   0.65920497  0.08049609  0.15095029
   0.54343474  0.05298420  0.46718953
   0.78237387  0.33321808  0.10030007
   0.86819893  0.23939913  0.21765305
   0.96215880  0.14543926  0.35268003
   0.50030194  0.37150212  0.21765305
   0.59426181  0.27754226  0.35268003
   0.68671687  0.19626632  0.46718954
   0.90634206  0.46546199  0.08262607
   0.26092070  0.97878036  0.25332799
   0.35488056  0.88482049  0.38835497
   0.37360060  0.86610213  0.49716306
   0.16696083  0.57274024  0.11830101
   0.04340626  0.55297248  0.46717869
   0.27423907  0.83335899  0.08262607
   0.36819893  0.73939913  0.21765305
   0.46215880  0.64543926  0.35268003
   0.00030194  0.87150212  0.21765305
   0.09426181  0.77754226  0.35268003
   0.18672858  0.69629480  0.46717870
   0.40648298  0.95732718  0.10030007
   0.76092070  0.97878036  0.25332799
   0.85488056  0.88482049  0.38835497
   0.95413130  0.78556976  0.50501358
   0.66696083  0.57274024  0.11830101
   0.54937918  0.55472286  0.47268067
   0.79044579  0.79683756  0.10636344
   0.86819893  0.73939913  0.21765305
   0.96215880  0.64543926  0.35268003
   0.50030194  0.87150212  0.21765305
   0.59426181  0.77754226  0.35268003
   0.68497484  0.69031932  0.47268413
   0.94286348  0.94925527  0.10636344
   0.07287763  0.16682343  0.27005396
   0.16683750  0.07286357  0.40508094
   0.35184238  0.38785868  0.01233296
   0.47891775  0.26078330  0.13502698
   0.03023343  0.37768264  0.45050807
   0.43627354  0.47164251  0.31548109
   0.27215659  0.14983986  0.06734644
   0.34231368  0.06560239  0.18045411
   0.08289620  0.47908838  0.06413932
   0.17409868  0.39738738  0.18045411
   0.26805855  0.30342751  0.31548109
   0.36201842  0.20946765  0.45050807
   0.57287763  0.16682343  0.27005396
   0.66683750  0.07286357  0.40508094
   0.84777482  0.37190249  0.02031044
   0.97891775  0.26078330  0.13502698
   0.70995077  0.52974392  0.52746382
   0.53023343  0.37768264  0.45050807
   0.93627354  0.47164251  0.31548109
   0.84231368  0.06560239  0.18045411
   0.58986119  0.46754449  0.06734644
   0.67409868  0.39738738  0.18045411
   0.76805855  0.30342751  0.31548109
   0.86201842  0.20946765  0.45050807
   0.07287764  0.66682343  0.27005396
   0.16683750  0.57286357  0.40508094
   0.36779857  0.89192624  0.02031045
   0.47891775  0.76078330  0.13502698
   0.20995713  0.02975028  0.52746382
   0.03023342  0.87768264  0.45050807
   0.43627354  0.97164251  0.31548109
   0.26061268  0.65680486  0.06413931
   0.34231368  0.56560239  0.18045411
   0.08798013  0.98158554  0.06089800
   0.17409868  0.89738738  0.18045411
   0.26805855  0.80342751  0.31548109
   0.36201842  0.70946764  0.45050807
   0.57287764  0.66682343  0.27005396
   0.66683750  0.57286357  0.40508094
   0.75925007  0.98045098  0.07240231
   0.97891775  0.76078330  0.13502698
   0.53023342  0.87768264  0.45050807
   0.93627354  0.97164251  0.31548109
   0.75811553  0.65172092  0.06089799
   0.84231368  0.56560239  0.18045411
   0.67409868  0.89738738  0.18045411
   0.76805855  0.80342751  0.31548109
   0.86201842  0.70946764  0.45050807
