 104 104   0   0
  0.2492376E+02  0.1125646E-08  0.1125646E-08  0.2288365E-08  0.5000000E-15
  1.000000000000000E-004
  CAR 
 "Millerite NiS"                         
     11.78760286    -66.46324419  301      2.07357019      1.00000000
    -66.463  0.0000E+00  0.0000E+00
    -66.202  0.0000E+00  0.0000E+00
    -65.942  0.0000E+00  0.0000E+00
    -65.681  0.0000E+00  0.0000E+00
    -65.420  0.0000E+00  0.0000E+00
    -65.159  0.0000E+00  0.0000E+00
    -64.898  0.0000E+00  0.0000E+00
    -64.637  0.0000E+00  0.0000E+00
    -64.377  0.0000E+00  0.0000E+00
    -64.116  0.0000E+00  0.0000E+00
    -63.855  0.7633E-10  0.1991E-10
    -63.594  0.4476E-05  0.1168E-05
    -63.333  0.1016E-01  0.2651E-02
    -63.072  0.1159E+01  0.3050E+00
    -62.812  0.1562E+02  0.4379E+01
    -62.551  0.7790E+02  0.2470E+02
    -62.290  0.1906E+03  0.7440E+02
    -62.029  0.2991E+03  0.1524E+03
    -61.768  0.3765E+03  0.2506E+03
    -61.507  0.1523E+03  0.2904E+03
    -61.247  0.5463E+02  0.3046E+03
    -60.986  0.2385E+02  0.3108E+03
    -60.725  0.4373E+01  0.3120E+03
    -60.464  0.1187E+00  0.3120E+03
    -60.203  0.1793E-03  0.3120E+03
    -59.942  0.1133E-07  0.3120E+03
    -59.682  0.2639E-13  0.3120E+03
    -59.421  0.0000E+00  0.3120E+03
    -59.160  0.0000E+00  0.3120E+03
    -58.899  0.0000E+00  0.3120E+03
    -58.638  0.0000E+00  0.3120E+03
    -58.377  0.0000E+00  0.3120E+03
    -58.116  0.0000E+00  0.3120E+03
    -57.856  0.0000E+00  0.3120E+03
    -57.595  0.0000E+00  0.3120E+03
    -57.334  0.0000E+00  0.3120E+03
    -57.073  0.0000E+00  0.3120E+03
    -56.812  0.0000E+00  0.3120E+03
    -56.551  0.0000E+00  0.3120E+03
    -56.291  0.0000E+00  0.3120E+03
    -56.030  0.0000E+00  0.3120E+03
    -55.769  0.0000E+00  0.3120E+03
    -55.508  0.0000E+00  0.3120E+03
    -55.247  0.0000E+00  0.3120E+03
    -54.986  0.0000E+00  0.3120E+03
    -54.726  0.0000E+00  0.3120E+03
    -54.465  0.0000E+00  0.3120E+03
    -54.204  0.0000E+00  0.3120E+03
    -53.943  0.0000E+00  0.3120E+03
    -53.682  0.0000E+00  0.3120E+03
    -53.421  0.0000E+00  0.3120E+03
    -53.161  0.0000E+00  0.3120E+03
    -52.900  0.0000E+00  0.3120E+03
    -52.639  0.0000E+00  0.3120E+03
    -52.378  0.0000E+00  0.3120E+03
    -52.117  0.0000E+00  0.3120E+03
    -51.856  0.0000E+00  0.3120E+03
    -51.596  0.0000E+00  0.3120E+03
    -51.335  0.0000E+00  0.3120E+03
    -51.074  0.0000E+00  0.3120E+03
    -50.813  0.0000E+00  0.3120E+03
    -50.552  0.0000E+00  0.3120E+03
    -50.291  0.0000E+00  0.3120E+03
    -50.031  0.0000E+00  0.3120E+03
    -49.770  0.0000E+00  0.3120E+03
    -49.509  0.0000E+00  0.3120E+03
    -49.248  0.0000E+00  0.3120E+03
    -48.987  0.0000E+00  0.3120E+03
    -48.726  0.0000E+00  0.3120E+03
    -48.466  0.0000E+00  0.3120E+03
    -48.205  0.0000E+00  0.3120E+03
    -47.944  0.0000E+00  0.3120E+03
    -47.683  0.0000E+00  0.3120E+03
    -47.422  0.0000E+00  0.3120E+03
    -47.161  0.0000E+00  0.3120E+03
    -46.901  0.0000E+00  0.3120E+03
    -46.640  0.0000E+00  0.3120E+03
    -46.379  0.0000E+00  0.3120E+03
    -46.118  0.0000E+00  0.3120E+03
    -45.857  0.0000E+00  0.3120E+03
    -45.596  0.0000E+00  0.3120E+03
    -45.336  0.0000E+00  0.3120E+03
    -45.075  0.0000E+00  0.3120E+03
    -44.814  0.0000E+00  0.3120E+03
    -44.553  0.0000E+00  0.3120E+03
    -44.292  0.0000E+00  0.3120E+03
    -44.031  0.0000E+00  0.3120E+03
    -43.770  0.0000E+00  0.3120E+03
    -43.510  0.0000E+00  0.3120E+03
    -43.249  0.0000E+00  0.3120E+03
    -42.988  0.0000E+00  0.3120E+03
    -42.727  0.0000E+00  0.3120E+03
    -42.466  0.0000E+00  0.3120E+03
    -42.205  0.0000E+00  0.3120E+03
    -41.945  0.0000E+00  0.3120E+03
    -41.684  0.0000E+00  0.3120E+03
    -41.423  0.0000E+00  0.3120E+03
    -41.162  0.0000E+00  0.3120E+03
    -40.901  0.0000E+00  0.3120E+03
    -40.640  0.0000E+00  0.3120E+03
    -40.380  0.0000E+00  0.3120E+03
    -40.119  0.0000E+00  0.3120E+03
    -39.858  0.0000E+00  0.3120E+03
    -39.597  0.0000E+00  0.3120E+03
    -39.336  0.0000E+00  0.3120E+03
    -39.075  0.0000E+00  0.3120E+03
    -38.815  0.0000E+00  0.3120E+03
    -38.554  0.0000E+00  0.3120E+03
    -38.293  0.0000E+00  0.3120E+03
    -38.032  0.0000E+00  0.3120E+03
    -37.771  0.0000E+00  0.3120E+03
    -37.510  0.0000E+00  0.3120E+03
    -37.250  0.0000E+00  0.3120E+03
    -36.989  0.0000E+00  0.3120E+03
    -36.728  0.0000E+00  0.3120E+03
    -36.467  0.0000E+00  0.3120E+03
    -36.206  0.0000E+00  0.3120E+03
    -35.945  0.0000E+00  0.3120E+03
    -35.685  0.0000E+00  0.3120E+03
    -35.424  0.0000E+00  0.3120E+03
    -35.163  0.0000E+00  0.3120E+03
    -34.902  0.0000E+00  0.3120E+03
    -34.641  0.0000E+00  0.3120E+03
    -34.380  0.0000E+00  0.3120E+03
    -34.120  0.0000E+00  0.3120E+03
    -33.859  0.0000E+00  0.3120E+03
    -33.598  0.0000E+00  0.3120E+03
    -33.337  0.0000E+00  0.3120E+03
    -33.076  0.0000E+00  0.3120E+03
    -32.815  0.0000E+00  0.3120E+03
    -32.555  0.0000E+00  0.3120E+03
    -32.294  0.0000E+00  0.3120E+03
    -32.033  0.0000E+00  0.3120E+03
    -31.772  0.0000E+00  0.3120E+03
    -31.511  0.0000E+00  0.3120E+03
    -31.250  0.0000E+00  0.3120E+03
    -30.990  0.0000E+00  0.3120E+03
    -30.729  0.0000E+00  0.3120E+03
    -30.468  0.0000E+00  0.3120E+03
    -30.207  0.0000E+00  0.3120E+03
    -29.946  0.0000E+00  0.3120E+03
    -29.685  0.0000E+00  0.3120E+03
    -29.425  0.0000E+00  0.3120E+03
    -29.164  0.0000E+00  0.3120E+03
    -28.903  0.0000E+00  0.3120E+03
    -28.642  0.0000E+00  0.3120E+03
    -28.381  0.0000E+00  0.3120E+03
    -28.120  0.0000E+00  0.3120E+03
    -27.859  0.0000E+00  0.3120E+03
    -27.599  0.0000E+00  0.3120E+03
    -27.338  0.0000E+00  0.3120E+03
    -27.077  0.0000E+00  0.3120E+03
    -26.816  0.0000E+00  0.3120E+03
    -26.555  0.0000E+00  0.3120E+03
    -26.294  0.0000E+00  0.3120E+03
    -26.034  0.0000E+00  0.3120E+03
    -25.773  0.0000E+00  0.3120E+03
    -25.512  0.0000E+00  0.3120E+03
    -25.251  0.0000E+00  0.3120E+03
    -24.990  0.0000E+00  0.3120E+03
    -24.729  0.0000E+00  0.3120E+03
    -24.469  0.0000E+00  0.3120E+03
    -24.208  0.0000E+00  0.3120E+03
    -23.947  0.0000E+00  0.3120E+03
    -23.686  0.0000E+00  0.3120E+03
    -23.425  0.0000E+00  0.3120E+03
    -23.164  0.0000E+00  0.3120E+03
    -22.904  0.0000E+00  0.3120E+03
    -22.643  0.0000E+00  0.3120E+03
    -22.382  0.0000E+00  0.3120E+03
    -22.121  0.0000E+00  0.3120E+03
    -21.860  0.0000E+00  0.3120E+03
    -21.599  0.0000E+00  0.3120E+03
    -21.339  0.0000E+00  0.3120E+03
    -21.078  0.0000E+00  0.3120E+03
    -20.817  0.0000E+00  0.3120E+03
    -20.556  0.0000E+00  0.3120E+03
    -20.295  0.0000E+00  0.3120E+03
    -20.034  0.0000E+00  0.3120E+03
    -19.774  0.0000E+00  0.3120E+03
    -19.513  0.0000E+00  0.3120E+03
    -19.252  0.0000E+00  0.3120E+03
    -18.991  0.0000E+00  0.3120E+03
    -18.730  0.0000E+00  0.3120E+03
    -18.469  0.0000E+00  0.3120E+03
    -18.209  0.0000E+00  0.3120E+03
    -17.948  0.0000E+00  0.3120E+03
    -17.687  0.0000E+00  0.3120E+03
    -17.426  0.0000E+00  0.3120E+03
    -17.165  0.0000E+00  0.3120E+03
    -16.904  0.0000E+00  0.3120E+03
    -16.644  0.0000E+00  0.3120E+03
    -16.383  0.0000E+00  0.3120E+03
    -16.122  0.0000E+00  0.3120E+03
    -15.861  0.0000E+00  0.3120E+03
    -15.600  0.0000E+00  0.3120E+03
    -15.339  0.1527E-10  0.3120E+03
    -15.079  0.1348E-05  0.3120E+03
    -14.818  0.4439E-02  0.3120E+03
    -14.557  0.6099E+00  0.3122E+03
    -14.296  0.4690E+01  0.3134E+03
    -14.035  0.6293E+01  0.3150E+03
    -13.774  0.1099E+02  0.3179E+03
    -13.514  0.1607E+02  0.3221E+03
    -13.253  0.2341E+02  0.3282E+03
    -12.992  0.2427E+02  0.3345E+03
    -12.731  0.2240E+02  0.3404E+03
    -12.470  0.3027E+02  0.3483E+03
    -12.209  0.4359E+02  0.3596E+03
    -11.948  0.4380E+02  0.3711E+03
    -11.688  0.4159E+02  0.3819E+03
    -11.427  0.4801E+02  0.3944E+03
    -11.166  0.3629E+02  0.4039E+03
    -10.905  0.2569E+02  0.4106E+03
    -10.644  0.1471E+02  0.4144E+03
    -10.383  0.5345E+01  0.4158E+03
    -10.123  0.6533E+00  0.4160E+03
     -9.862  0.5027E-02  0.4160E+03
     -9.601  0.1626E-05  0.4160E+03
     -9.340  0.1963E-10  0.4160E+03
     -9.079  0.0000E+00  0.4160E+03
     -8.818  0.0000E+00  0.4160E+03
     -8.558  0.0000E+00  0.4160E+03
     -8.297  0.0000E+00  0.4160E+03
     -8.036  0.0000E+00  0.4160E+03
     -7.775  0.0000E+00  0.4160E+03
     -7.514  0.0000E+00  0.4160E+03
     -7.253  0.8513E-15  0.4160E+03
     -6.993  0.9254E-09  0.4160E+03
     -6.732  0.3242E-04  0.4160E+03
     -6.471  0.4520E-01  0.4160E+03
     -6.210  0.3105E+01  0.4168E+03
     -5.949  0.1925E+02  0.4218E+03
     -5.688  0.3145E+02  0.4300E+03
     -5.428  0.2986E+02  0.4378E+03
     -5.167  0.3428E+02  0.4468E+03
     -4.906  0.5043E+02  0.4599E+03
     -4.645  0.5853E+02  0.4752E+03
     -4.384  0.6663E+02  0.4926E+03
     -4.123  0.6258E+02  0.5089E+03
     -3.863  0.6849E+02  0.5268E+03
     -3.602  0.6713E+02  0.5443E+03
     -3.341  0.6417E+02  0.5610E+03
     -3.080  0.7246E+02  0.5799E+03
     -2.819  0.8965E+02  0.6033E+03
     -2.558  0.9051E+02  0.6269E+03
     -2.298  0.8420E+02  0.6489E+03
     -2.037  0.8998E+02  0.6723E+03
     -1.776  0.8231E+02  0.6938E+03
     -1.515  0.5570E+02  0.7083E+03
     -1.254  0.6365E+02  0.7249E+03
     -0.993  0.8457E+02  0.7470E+03
     -0.733  0.1012E+03  0.7734E+03
     -0.472  0.1275E+03  0.8067E+03
     -0.211  0.1521E+03  0.8463E+03
      0.050  0.1764E+03  0.8923E+03
      0.311  0.1886E+03  0.9415E+03
      0.572  0.1832E+03  0.9893E+03
      0.832  0.1564E+03  0.1030E+04
      1.093  0.1265E+03  0.1063E+04
      1.354  0.9564E+02  0.1088E+04
      1.615  0.8652E+02  0.1111E+04
      1.876  0.7575E+02  0.1130E+04
      2.137  0.6797E+02  0.1148E+04
      2.398  0.6211E+02  0.1164E+04
      2.658  0.6628E+02  0.1182E+04
      2.919  0.7341E+02  0.1201E+04
      3.180  0.6855E+02  0.1219E+04
      3.441  0.4831E+02  0.1231E+04
      3.702  0.3881E+02  0.1241E+04
      3.963  0.2467E+02  0.1248E+04
      4.223  0.8163E+01  0.1250E+04
      4.484  0.3052E+01  0.1251E+04
      4.745  0.6857E+01  0.1253E+04
      5.006  0.7986E+01  0.1255E+04
      5.267  0.1657E+02  0.1259E+04
      5.528  0.1880E+02  0.1264E+04
      5.788  0.1860E+02  0.1269E+04
      6.049  0.1861E+02  0.1274E+04
      6.310  0.2672E+02  0.1280E+04
      6.571  0.3454E+02  0.1289E+04
      6.832  0.3144E+02  0.1298E+04
      7.093  0.3322E+02  0.1306E+04
      7.353  0.4777E+02  0.1319E+04
      7.614  0.5622E+02  0.1333E+04
      7.875  0.5547E+02  0.1348E+04
      8.136  0.5763E+02  0.1363E+04
      8.397  0.3165E+02  0.1371E+04
      8.658  0.2863E+01  0.1372E+04
      8.918  0.2077E-01  0.1372E+04
      9.179  0.7659E-05  0.1372E+04
      9.440  0.1156E-09  0.1372E+04
      9.701  0.0000E+00  0.1372E+04
      9.962  0.0000E+00  0.1372E+04
     10.223  0.0000E+00  0.1372E+04
     10.483  0.0000E+00  0.1372E+04
     10.744  0.0000E+00  0.1372E+04
     11.005  0.0000E+00  0.1372E+04
     11.266  0.0000E+00  0.1372E+04
     11.527  0.0000E+00  0.1372E+04
     11.788  0.0000E+00  0.1372E+04
