       N       E                     dE             d eps       ncg     rms          rms(c)
DAV:   1     0.997541627185E+04    0.99754E+04   -0.51320E+05  1160   0.165E+03
DAV:   2     0.612124972282E+03   -0.93633E+04   -0.90286E+04  1012   0.534E+02
DAV:   3    -0.341504078401E+03   -0.95363E+03   -0.90964E+03  1080   0.186E+02
DAV:   4    -0.400083266002E+03   -0.58579E+02   -0.57875E+02  1112   0.413E+01
DAV:   5    -0.402391107292E+03   -0.23078E+01   -0.23043E+01  1248   0.864E+00    0.952E+01
DAV:   6    -0.461300091108E+03   -0.58909E+02   -0.94390E+02  1176   0.118E+02    0.146E+02
DAV:   7    -0.362634433579E+03    0.98666E+02   -0.19152E+02  1104   0.729E+01    0.578E+01
DAV:   8    -0.404553576862E+03   -0.41919E+02   -0.19474E+02  1328   0.801E+01    0.125E+02
DAV:   9    -0.379548361235E+03    0.25005E+02   -0.15438E+02  1224   0.683E+01    0.659E+01
DAV:  10    -0.400482461254E+03   -0.20934E+02   -0.85066E+01  1344   0.623E+01    0.949E+01
DAV:  11    -0.377114564042E+03    0.23368E+02   -0.59840E+01  1312   0.410E+01    0.620E+01
DAV:  12    -0.362053665192E+03    0.15061E+02   -0.29168E+01  1312   0.351E+01    0.326E+01
DAV:  13    -0.362501694900E+03   -0.44803E+00   -0.22156E+01  1296   0.314E+01    0.411E+01
DAV:  14    -0.356477619786E+03    0.60241E+01   -0.14299E+01  1312   0.229E+01    0.213E+01
DAV:  15    -0.355580799070E+03    0.89682E+00   -0.39656E+00  1304   0.133E+01    0.180E+01
DAV:  16    -0.354705538534E+03    0.87526E+00   -0.16697E+00  1304   0.840E+00    0.136E+01
DAV:  17    -0.354400076375E+03    0.30546E+00   -0.48863E-01  1288   0.454E+00    0.121E+01
DAV:  18    -0.354059291306E+03    0.34079E+00   -0.30698E-01  1304   0.389E+00    0.103E+01
DAV:  19    -0.353881578412E+03    0.17771E+00   -0.25305E-01  1288   0.355E+00    0.878E+00
DAV:  20    -0.353611526696E+03    0.27005E+00   -0.24883E-01  1328   0.385E+00    0.654E+00
DAV:  21    -0.353465760968E+03    0.14577E+00   -0.33939E-01  1320   0.395E+00    0.441E+00
DAV:  22    -0.353403462816E+03    0.62298E-01   -0.18292E-01  1280   0.287E+00    0.290E+00
DAV:  23    -0.353395768091E+03    0.76947E-02   -0.88508E-02  1256   0.184E+00    0.248E+00
DAV:  24    -0.353391803073E+03    0.39650E-02   -0.46660E-02  1184   0.120E+00    0.222E+00
DAV:  25    -0.353386867567E+03    0.49355E-02   -0.43116E-02  1144   0.162E+00    0.192E+00
DAV:  26    -0.353371856245E+03    0.15011E-01   -0.30784E-02  1304   0.121E+00    0.119E+00
DAV:  27    -0.353369102601E+03    0.27536E-02   -0.15981E-02  1320   0.886E-01    0.847E-01
DAV:  28    -0.353366431348E+03    0.26713E-02   -0.74310E-03  1288   0.548E-01    0.477E-01
DAV:  29    -0.353366443911E+03   -0.12563E-04   -0.45430E-03  1208   0.455E-01    0.399E-01
DAV:  30    -0.353366291056E+03    0.15285E-03   -0.23054E-03  1232   0.306E-01    0.239E-01
DAV:  31    -0.353366423849E+03   -0.13279E-03   -0.10438E-03  1088   0.204E-01    0.229E-01
DAV:  32    -0.353366580091E+03   -0.15624E-03   -0.39380E-04   784   0.135E-01    0.156E-01
DAV:  33    -0.353366802246E+03   -0.22216E-03   -0.46183E-04   864   0.166E-01    0.165E-01
DAV:  34    -0.353367042009E+03   -0.23976E-03   -0.25953E-04   648   0.119E-01    0.605E-02
DAV:  35    -0.353367186992E+03   -0.14498E-03   -0.12309E-04   600   0.710E-02    0.714E-02
DAV:  36    -0.353367425051E+03   -0.23806E-03   -0.83649E-05   600   0.523E-02    0.394E-02
DAV:  37    -0.353367603111E+03   -0.17806E-03   -0.48569E-05   584   0.444E-02    0.459E-02
DAV:  38    -0.353367837649E+03   -0.23454E-03   -0.53344E-05   584   0.443E-02    0.238E-02
DAV:  39    -0.353368175433E+03   -0.33778E-03   -0.53949E-05   608   0.361E-02    0.410E-02
DAV:  40    -0.353368333243E+03   -0.15781E-03   -0.44550E-05   600   0.344E-02    0.227E-02
DAV:  41    -0.353368525469E+03   -0.19223E-03   -0.27600E-05   584   0.166E-02    0.221E-02
DAV:  42    -0.353368621506E+03   -0.96037E-04   -0.19427E-05   592   0.230E-02
   1 F= -.35336862E+03 E0= -.35292263E+03  d E =-.891974E+00
