  72  72   0   0
  0.2705198E+02  0.1007973E-08  0.1007973E-08  0.2050201E-08  0.5000000E-15
  1.000000000000000E-004
  CAR 
 "Millerite NiS"                         
     11.10269788    -66.86879483  301      1.53203274      1.00000000
    -66.869  0.0000E+00  0.0000E+00
    -66.609  0.0000E+00  0.0000E+00
    -66.349  0.0000E+00  0.0000E+00
    -66.089  0.0000E+00  0.0000E+00
    -65.829  0.0000E+00  0.0000E+00
    -65.569  0.0000E+00  0.0000E+00
    -65.309  0.0000E+00  0.0000E+00
    -65.049  0.0000E+00  0.0000E+00
    -64.790  0.0000E+00  0.0000E+00
    -64.530  0.0000E+00  0.0000E+00
    -64.270  0.1133E-09  0.2944E-10
    -64.010  0.6706E-05  0.1743E-05
    -63.750  0.1612E-01  0.4191E-02
    -63.490  0.1991E+01  0.5217E+00
    -63.230  0.2599E+02  0.7277E+01
    -62.970  0.1041E+03  0.3434E+02
    -62.710  0.2250E+03  0.9283E+02
    -62.450  0.2783E+03  0.1651E+03
    -62.191  0.1414E+03  0.2019E+03
    -61.931  0.3796E+02  0.2118E+03
    -61.671  0.1280E+02  0.2151E+03
    -61.411  0.3373E+01  0.2160E+03
    -61.151  0.1636E+00  0.2160E+03
    -60.891  0.4252E-03  0.2160E+03
    -60.631  0.4500E-07  0.2160E+03
    -60.371  0.1777E-12  0.2160E+03
    -60.111  0.0000E+00  0.2160E+03
    -59.851  0.0000E+00  0.2160E+03
    -59.591  0.0000E+00  0.2160E+03
    -59.332  0.0000E+00  0.2160E+03
    -59.072  0.0000E+00  0.2160E+03
    -58.812  0.0000E+00  0.2160E+03
    -58.552  0.0000E+00  0.2160E+03
    -58.292  0.0000E+00  0.2160E+03
    -58.032  0.0000E+00  0.2160E+03
    -57.772  0.0000E+00  0.2160E+03
    -57.512  0.0000E+00  0.2160E+03
    -57.252  0.0000E+00  0.2160E+03
    -56.992  0.0000E+00  0.2160E+03
    -56.733  0.0000E+00  0.2160E+03
    -56.473  0.0000E+00  0.2160E+03
    -56.213  0.0000E+00  0.2160E+03
    -55.953  0.0000E+00  0.2160E+03
    -55.693  0.0000E+00  0.2160E+03
    -55.433  0.0000E+00  0.2160E+03
    -55.173  0.0000E+00  0.2160E+03
    -54.913  0.0000E+00  0.2160E+03
    -54.653  0.0000E+00  0.2160E+03
    -54.393  0.0000E+00  0.2160E+03
    -54.133  0.0000E+00  0.2160E+03
    -53.874  0.0000E+00  0.2160E+03
    -53.614  0.0000E+00  0.2160E+03
    -53.354  0.0000E+00  0.2160E+03
    -53.094  0.0000E+00  0.2160E+03
    -52.834  0.0000E+00  0.2160E+03
    -52.574  0.0000E+00  0.2160E+03
    -52.314  0.0000E+00  0.2160E+03
    -52.054  0.0000E+00  0.2160E+03
    -51.794  0.0000E+00  0.2160E+03
    -51.534  0.0000E+00  0.2160E+03
    -51.274  0.0000E+00  0.2160E+03
    -51.015  0.0000E+00  0.2160E+03
    -50.755  0.0000E+00  0.2160E+03
    -50.495  0.0000E+00  0.2160E+03
    -50.235  0.0000E+00  0.2160E+03
    -49.975  0.0000E+00  0.2160E+03
    -49.715  0.0000E+00  0.2160E+03
    -49.455  0.0000E+00  0.2160E+03
    -49.195  0.0000E+00  0.2160E+03
    -48.935  0.0000E+00  0.2160E+03
    -48.675  0.0000E+00  0.2160E+03
    -48.416  0.0000E+00  0.2160E+03
    -48.156  0.0000E+00  0.2160E+03
    -47.896  0.0000E+00  0.2160E+03
    -47.636  0.0000E+00  0.2160E+03
    -47.376  0.0000E+00  0.2160E+03
    -47.116  0.0000E+00  0.2160E+03
    -46.856  0.0000E+00  0.2160E+03
    -46.596  0.0000E+00  0.2160E+03
    -46.336  0.0000E+00  0.2160E+03
    -46.076  0.0000E+00  0.2160E+03
    -45.816  0.0000E+00  0.2160E+03
    -45.557  0.0000E+00  0.2160E+03
    -45.297  0.0000E+00  0.2160E+03
    -45.037  0.0000E+00  0.2160E+03
    -44.777  0.0000E+00  0.2160E+03
    -44.517  0.0000E+00  0.2160E+03
    -44.257  0.0000E+00  0.2160E+03
    -43.997  0.0000E+00  0.2160E+03
    -43.737  0.0000E+00  0.2160E+03
    -43.477  0.0000E+00  0.2160E+03
    -43.217  0.0000E+00  0.2160E+03
    -42.958  0.0000E+00  0.2160E+03
    -42.698  0.0000E+00  0.2160E+03
    -42.438  0.0000E+00  0.2160E+03
    -42.178  0.0000E+00  0.2160E+03
    -41.918  0.0000E+00  0.2160E+03
    -41.658  0.0000E+00  0.2160E+03
    -41.398  0.0000E+00  0.2160E+03
    -41.138  0.0000E+00  0.2160E+03
    -40.878  0.0000E+00  0.2160E+03
    -40.618  0.0000E+00  0.2160E+03
    -40.358  0.0000E+00  0.2160E+03
    -40.099  0.0000E+00  0.2160E+03
    -39.839  0.0000E+00  0.2160E+03
    -39.579  0.0000E+00  0.2160E+03
    -39.319  0.0000E+00  0.2160E+03
    -39.059  0.0000E+00  0.2160E+03
    -38.799  0.0000E+00  0.2160E+03
    -38.539  0.0000E+00  0.2160E+03
    -38.279  0.0000E+00  0.2160E+03
    -38.019  0.0000E+00  0.2160E+03
    -37.759  0.0000E+00  0.2160E+03
    -37.500  0.0000E+00  0.2160E+03
    -37.240  0.0000E+00  0.2160E+03
    -36.980  0.0000E+00  0.2160E+03
    -36.720  0.0000E+00  0.2160E+03
    -36.460  0.0000E+00  0.2160E+03
    -36.200  0.0000E+00  0.2160E+03
    -35.940  0.0000E+00  0.2160E+03
    -35.680  0.0000E+00  0.2160E+03
    -35.420  0.0000E+00  0.2160E+03
    -35.160  0.0000E+00  0.2160E+03
    -34.900  0.0000E+00  0.2160E+03
    -34.641  0.0000E+00  0.2160E+03
    -34.381  0.0000E+00  0.2160E+03
    -34.121  0.0000E+00  0.2160E+03
    -33.861  0.0000E+00  0.2160E+03
    -33.601  0.0000E+00  0.2160E+03
    -33.341  0.0000E+00  0.2160E+03
    -33.081  0.0000E+00  0.2160E+03
    -32.821  0.0000E+00  0.2160E+03
    -32.561  0.0000E+00  0.2160E+03
    -32.301  0.0000E+00  0.2160E+03
    -32.042  0.0000E+00  0.2160E+03
    -31.782  0.0000E+00  0.2160E+03
    -31.522  0.0000E+00  0.2160E+03
    -31.262  0.0000E+00  0.2160E+03
    -31.002  0.0000E+00  0.2160E+03
    -30.742  0.0000E+00  0.2160E+03
    -30.482  0.0000E+00  0.2160E+03
    -30.222  0.0000E+00  0.2160E+03
    -29.962  0.0000E+00  0.2160E+03
    -29.702  0.0000E+00  0.2160E+03
    -29.442  0.0000E+00  0.2160E+03
    -29.183  0.0000E+00  0.2160E+03
    -28.923  0.0000E+00  0.2160E+03
    -28.663  0.0000E+00  0.2160E+03
    -28.403  0.0000E+00  0.2160E+03
    -28.143  0.0000E+00  0.2160E+03
    -27.883  0.0000E+00  0.2160E+03
    -27.623  0.0000E+00  0.2160E+03
    -27.363  0.0000E+00  0.2160E+03
    -27.103  0.0000E+00  0.2160E+03
    -26.843  0.0000E+00  0.2160E+03
    -26.584  0.0000E+00  0.2160E+03
    -26.324  0.0000E+00  0.2160E+03
    -26.064  0.0000E+00  0.2160E+03
    -25.804  0.0000E+00  0.2160E+03
    -25.544  0.0000E+00  0.2160E+03
    -25.284  0.0000E+00  0.2160E+03
    -25.024  0.0000E+00  0.2160E+03
    -24.764  0.0000E+00  0.2160E+03
    -24.504  0.0000E+00  0.2160E+03
    -24.244  0.0000E+00  0.2160E+03
    -23.984  0.0000E+00  0.2160E+03
    -23.725  0.0000E+00  0.2160E+03
    -23.465  0.0000E+00  0.2160E+03
    -23.205  0.0000E+00  0.2160E+03
    -22.945  0.0000E+00  0.2160E+03
    -22.685  0.0000E+00  0.2160E+03
    -22.425  0.0000E+00  0.2160E+03
    -22.165  0.0000E+00  0.2160E+03
    -21.905  0.0000E+00  0.2160E+03
    -21.645  0.0000E+00  0.2160E+03
    -21.385  0.0000E+00  0.2160E+03
    -21.126  0.0000E+00  0.2160E+03
    -20.866  0.0000E+00  0.2160E+03
    -20.606  0.0000E+00  0.2160E+03
    -20.346  0.0000E+00  0.2160E+03
    -20.086  0.0000E+00  0.2160E+03
    -19.826  0.0000E+00  0.2160E+03
    -19.566  0.0000E+00  0.2160E+03
    -19.306  0.0000E+00  0.2160E+03
    -19.046  0.0000E+00  0.2160E+03
    -18.786  0.0000E+00  0.2160E+03
    -18.526  0.0000E+00  0.2160E+03
    -18.267  0.0000E+00  0.2160E+03
    -18.007  0.0000E+00  0.2160E+03
    -17.747  0.0000E+00  0.2160E+03
    -17.487  0.0000E+00  0.2160E+03
    -17.227  0.0000E+00  0.2160E+03
    -16.967  0.0000E+00  0.2160E+03
    -16.707  0.0000E+00  0.2160E+03
    -16.447  0.6625E-12  0.2160E+03
    -16.187  0.1225E-06  0.2160E+03
    -15.927  0.8521E-03  0.2160E+03
    -15.668  0.2436E+00  0.2161E+03
    -15.408  0.3549E+01  0.2170E+03
    -15.148  0.3648E+01  0.2179E+03
    -14.888  0.1216E+01  0.2183E+03
    -14.628  0.4962E+01  0.2195E+03
    -14.368  0.4838E+01  0.2208E+03
    -14.108  0.9368E+01  0.2232E+03
    -13.848  0.1641E+02  0.2275E+03
    -13.588  0.1829E+02  0.2323E+03
    -13.328  0.2067E+02  0.2376E+03
    -13.068  0.2530E+02  0.2442E+03
    -12.809  0.2590E+02  0.2509E+03
    -12.549  0.3065E+02  0.2589E+03
    -12.289  0.3003E+02  0.2667E+03
    -12.029  0.2798E+02  0.2740E+03
    -11.769  0.2044E+02  0.2793E+03
    -11.509  0.1258E+02  0.2826E+03
    -11.249  0.1124E+02  0.2855E+03
    -10.989  0.3815E+01  0.2865E+03
    -10.729  0.4895E+01  0.2877E+03
    -10.469  0.9992E+00  0.2880E+03
    -10.210  0.1192E-01  0.2880E+03
     -9.950  0.6245E-05  0.2880E+03
     -9.690  0.1263E-09  0.2880E+03
     -9.430  0.0000E+00  0.2880E+03
     -9.170  0.0000E+00  0.2880E+03
     -8.910  0.0000E+00  0.2880E+03
     -8.650  0.0000E+00  0.2880E+03
     -8.390  0.0000E+00  0.2880E+03
     -8.130  0.0000E+00  0.2880E+03
     -7.870  0.0000E+00  0.2880E+03
     -7.610  0.1540E-10  0.2880E+03
     -7.351  0.1322E-05  0.2880E+03
     -7.091  0.4424E-02  0.2880E+03
     -6.831  0.6892E+00  0.2882E+03
     -6.571  0.8084E+01  0.2903E+03
     -6.311  0.1929E+02  0.2953E+03
     -6.051  0.2652E+02  0.3022E+03
     -5.791  0.3292E+02  0.3107E+03
     -5.531  0.4400E+02  0.3222E+03
     -5.271  0.4678E+02  0.3343E+03
     -5.011  0.3916E+02  0.3445E+03
     -4.752  0.3847E+02  0.3545E+03
     -4.492  0.3671E+02  0.3641E+03
     -4.232  0.4426E+02  0.3756E+03
     -3.972  0.5429E+02  0.3897E+03
     -3.712  0.6011E+02  0.4053E+03
     -3.452  0.6547E+02  0.4223E+03
     -3.192  0.6269E+02  0.4386E+03
     -2.932  0.5474E+02  0.4528E+03
     -2.672  0.5272E+02  0.4665E+03
     -2.412  0.4499E+02  0.4782E+03
     -2.152  0.3726E+02  0.4879E+03
     -1.893  0.4867E+02  0.5006E+03
     -1.633  0.6524E+02  0.5175E+03
     -1.373  0.7305E+02  0.5365E+03
     -1.113  0.8168E+02  0.5577E+03
     -0.853  0.9331E+02  0.5820E+03
     -0.593  0.1171E+03  0.6124E+03
     -0.333  0.1361E+03  0.6478E+03
     -0.073  0.1357E+03  0.6830E+03
      0.187  0.1144E+03  0.7128E+03
      0.447  0.7996E+02  0.7336E+03
      0.706  0.6713E+02  0.7510E+03
      0.966  0.5711E+02  0.7659E+03
      1.226  0.4649E+02  0.7779E+03
      1.486  0.4548E+02  0.7898E+03
      1.746  0.5023E+02  0.8028E+03
      2.006  0.4641E+02  0.8149E+03
      2.266  0.4854E+02  0.8275E+03
      2.526  0.4985E+02  0.8405E+03
      2.786  0.4435E+02  0.8520E+03
      3.046  0.2688E+02  0.8590E+03
      3.306  0.1051E+02  0.8617E+03
      3.565  0.1162E+01  0.8620E+03
      3.825  0.7392E+00  0.8622E+03
      4.085  0.4720E+01  0.8634E+03
      4.345  0.4890E+01  0.8647E+03
      4.605  0.1412E+02  0.8684E+03
      4.865  0.1659E+02  0.8727E+03
      5.125  0.9753E+01  0.8752E+03
      5.385  0.1716E+02  0.8797E+03
      5.645  0.1720E+02  0.8841E+03
      5.905  0.2492E+02  0.8906E+03
      6.165  0.2514E+02  0.8971E+03
      6.424  0.2948E+02  0.9048E+03
      6.684  0.3297E+02  0.9134E+03
      6.944  0.3914E+02  0.9235E+03
      7.204  0.4370E+02  0.9349E+03
      7.464  0.4212E+02  0.9459E+03
      7.724  0.2171E+02  0.9515E+03
      7.984  0.1928E+01  0.9520E+03
      8.244  0.1429E-01  0.9520E+03
      8.504  0.5709E-05  0.9520E+03
      8.764  0.9718E-10  0.9520E+03
      9.023  0.0000E+00  0.9520E+03
      9.283  0.0000E+00  0.9520E+03
      9.543  0.0000E+00  0.9520E+03
      9.803  0.0000E+00  0.9520E+03
     10.063  0.0000E+00  0.9520E+03
     10.323  0.0000E+00  0.9520E+03
     10.583  0.0000E+00  0.9520E+03
     10.843  0.0000E+00  0.9520E+03
     11.103  0.0000E+00  0.9520E+03
