"Millerite NiS"                         
           1
    11.256463    0.000000    0.000000
     0.000000    9.578410    0.000000
     0.000000    0.000000   17.192492
   Ty   Ty
  26  26
Direct configuration=     1
   0.43933499  0.46388800  0.16283377
   0.48484906  0.46708521  0.32131896
   0.15207123  0.98051223  0.09906000
   0.22174650  0.96157485  0.24082157
   0.43933499  0.19968200  0.16283377
   0.48879787  0.20592240  0.32497828
   0.15610609  0.69637364  0.09252392
   0.20548253  0.68527896  0.23507948
   0.13063970  0.33178500  0.13913288
   0.18201019  0.33123363  0.29881167
   0.44565051  0.83698113  0.10603055
   0.40820671  0.76246746  0.24573158
   0.48736120  0.99255813  0.23081736
   0.93933499  0.46388800  0.16283377
   0.98378391  0.46898047  0.32297628
   0.63839251  0.01452324  0.11822051
   0.71526096  0.96388800  0.25253989
   0.93933499  0.19968200  0.16283377
   0.98325415  0.19285619  0.32237579
   0.66407758  0.69909771  0.09751275
   0.71526096  0.69968200  0.25253989
   0.63063970  0.33178500  0.13913288
   0.68414711  0.33449142  0.29920435
   0.94904322  0.83309093  0.09490530
   0.90656566  0.83178500  0.22883899
   0.07515821  0.82621821  0.31668528
   0.06351334  0.16548090  0.07678308
   0.11148904  0.16357000  0.23893853
   0.33556306  0.66357000  0.14923241
   0.06796564  0.50635409  0.07993268
   0.11148904  0.50000000  0.23893853
   0.07101050  0.33014030  0.39307046
   0.33556306  1.00000000  0.14923241
   0.31329946  0.33403175  0.11222938
   0.36788880  0.33178500  0.26911836
   0.08616584  0.84236671  0.01810247
   0.09196284  0.83178500  0.17941224
   0.26588763  0.81324948  0.32371418
   0.55381297  0.18385726  0.06897056
   0.61148904  0.16357000  0.23893853
   0.57668320  0.34218195  0.39527843
   0.83556306  0.66357000  0.14923241
   0.93647359  0.68061418  0.31581733
   0.57181094  0.51211385  0.08257482
   0.61148904  0.50000000  0.23893853
   0.83556306  1.00000000  0.14923241
   0.94339098  0.97892771  0.31726720
   0.81442211  0.33182970  0.11256943
   0.86788880  0.33178500  0.26911836
   0.59211657  0.86334910  0.03325884
   0.59196284  0.83178500  0.17941224
   0.70952818  0.83134909  0.34211593
