<?xml version="1.0" encoding="ISO-8859-1"?>
<modeling>
 <generator>
  <i name="program" type="string">vasp </i>
  <i name="version" type="string">5.4.4.18Apr17-6-g9f103f2a35  </i>
  <i name="subversion" type="string">(build Aug 13 2019 17:33:20) gamma-only         parallel </i>
  <i name="platform" type="string">LinuxIFC </i>
  <i name="date" type="string">2020 05 11 </i>
  <i name="time" type="string">18:29:25 </i>
 </generator>
 <incar>
  <i type="string" name="SYSTEM">"Millerite NiS"</i>
  <i type="string" name="PREC">normal</i>
  <i type="int" name="NSIM">     4</i>
  <i type="int" name="NELM">   100</i>
  <i name="ENCUT">    450.00000000</i>
  <i type="string" name="LREAL">A</i>
  <i type="int" name="ISMEAR">     0</i>
  <i type="int" name="NWRITE">     2</i>
  <i type="logical" name="LWAVE"> F  </i>
  <i type="logical" name="LCHARG"> F  </i>
  <v type="int" name="KPOINT_BSE">    -1     0     0     0</v>
  <i type="int" name="NELM">   100</i>
 </incar>
 <structure name="primitive_cell" >
  <crystal>
   <varray name="basis" >
    <v>      16.88469405       0.00000000       0.00000000 </v>
    <v>       0.00000000       9.57841000       0.00000000 </v>
    <v>       0.00000000       0.00000000      16.16908712 </v>
   </varray>
   <i name="volume">   2615.00256803 </i>
   <varray name="rec_basis" >
    <v>       0.05922524       0.00000000       0.00000000 </v>
    <v>       0.00000000       0.10440146       0.00000000 </v>
    <v>       0.00000000       0.00000000       0.06184641 </v>
   </varray>
  </crystal>
  <varray name="positions" >
   <v>      -0.21995369       0.14529695       0.12058499 </v>
   <v>      -0.17788354       0.30576684       0.04195966 </v>
   <v>      -0.17788354      -0.01517294       0.04195966 </v>
   <v>      -0.19867007      -0.01786376       0.21633563 </v>
   <v>      -0.19867007       0.30845767       0.21633563 </v>
   <v>      -0.08860809       0.14529695       0.13598872 </v>
   <v>      -0.35339478       0.14529695       0.11882039 </v>
   <v>      -0.27767684       0.14529695       0.24972186 </v>
   <v>      -0.23919336       0.43495882       0.11608528 </v>
   <v>      -0.23919336      -0.14436491       0.11608528 </v>
   <v>      -0.09993571      -0.07324007       0.13747849 </v>
   <v>      -0.09993571       0.36383398       0.13747849 </v>
   <v>      -0.40270525       0.27739995       0.22256260 </v>
   <v>      -0.40270525       0.01319395       0.22256260 </v>
   <v>      -0.43380852       0.27347401       0.06534610 </v>
   <v>      -0.43380852       0.01711990       0.06534610 </v>
   <v>      -0.34336694       0.47708195       0.18270508 </v>
   <v>      -0.34336694      -0.18648805       0.18270508 </v>
   <v>      -0.23027726      -0.48680605       0.25435726 </v>
   <v>      -0.23027726      -0.22260005       0.25435726 </v>
   <v>      -0.37401908       0.14529695       0.32120734 </v>
   <v>      -0.02787592      -0.19763254       0.06379155 </v>
   <v>      -0.02787592       0.48822645       0.06379155 </v>
   <v>      -0.18096679      -0.35470305       0.15061505 </v>
   <v>      -0.01150764      -0.17534197       0.22438349 </v>
   <v>      -0.01150764       0.46593588       0.22438349 </v>
   <v>       0.04533595       0.14529695       0.27926328 </v>
   <v>      -0.30386662      -0.21112231       0.35264967 </v>
   <v>      -0.30386662      -0.49828378       0.35264967 </v>
   <v>       0.48420507       0.31351195       0.15091042 </v>
   <v>       0.48420507      -0.02291805       0.15091042 </v>
   <v>      -0.04752570      -0.35470305       0.15237965 </v>
   <v>       0.46975828       0.14529695       0.24776362 </v>
   <v>      -0.49391110      -0.03180374       0.31437170 </v>
   <v>      -0.49391110       0.32239765       0.31437170 </v>
   <v>      -0.14561950      -0.35470305       0.31225509 </v>
   <v>      -0.35781373      -0.35470305       0.27955828 </v>
   <v>       0.12490229       0.14529695       0.18417431 </v>
   <v>      -0.42954710      -0.35470305       0.15995263 </v>
   <v>       0.08001077      -0.48680605       0.12717863 </v>
   <v>       0.08001077      -0.22260005       0.12717863 </v>
   <v>       0.13990038       0.32198986       0.11099746 </v>
   <v>       0.13990038      -0.03139595       0.11099746 </v>
   <v>      -0.02361532      -0.35470305       0.29792791 </v>
   <v>       0.39449420       0.14529695       0.12497037 </v>
   <v>       0.09962015      -0.20294693       0.27635914 </v>
   <v>       0.09962015       0.49354084       0.27635914 </v>
   <v>       0.42486676      -0.48680605       0.19076795 </v>
   <v>       0.42486676      -0.22260005       0.19076795 </v>
   <v>       0.47417723      -0.35470305       0.08702573 </v>
   <v>      -0.49125482      -0.35470305       0.27779368 </v>
   <v>       0.14584651       0.14529695       0.34699912 </v>
   <v>       0.17391704       0.31351195       0.27808905 </v>
   <v>       0.17391704      -0.02291805       0.27808905 </v>
   <v>       0.44684520      -0.21029398       0.34472920 </v>
   <v>       0.44684520      -0.49911211       0.34472920 </v>
   <v>       0.39429237      -0.22652867       0.03437372 </v>
   <v>       0.39429237      -0.48287742       0.03437372 </v>
   <v>       0.11995015      -0.35470305       0.03443310 </v>
   <v>       0.33631719       0.14529695       0.24599902 </v>
   <v>       0.25243876       0.27739995       0.15897329 </v>
   <v>       0.25243876       0.01319395       0.15897329 </v>
   <v>       0.16388920      -0.35470305       0.21420436 </v>
   <v>       0.28830832       0.14529695       0.06614442 </v>
   <v>       0.31177708       0.47708195       0.11911576 </v>
   <v>       0.31177708      -0.18648805       0.11911576 </v>
   <v>       0.33881413       0.47939217       0.29123347 </v>
   <v>       0.33881413      -0.18879826       0.29123347 </v>
   <v>       0.22517816      -0.35470305       0.09307363 </v>
   <v>       0.28564201       0.00177615       0.32234289 </v>
   <v>       0.28564201       0.28881776       0.32234289 </v>
   <v>       0.29733029      -0.35470305       0.21596896 </v>
  </varray>
 </structure>
 <varray name="primitive_index" >
  <v type="int" >        1 </v>
  <v type="int" >       49 </v>
  <v type="int" >       63 </v>
  <v type="int" >       64 </v>
  <v type="int" >       50 </v>
  <v type="int" >       38 </v>
  <v type="int" >       41 </v>
  <v type="int" >        2 </v>
  <v type="int" >       23 </v>
  <v type="int" >       35 </v>
  <v type="int" >       13 </v>
  <v type="int" >       25 </v>
  <v type="int" >       30 </v>
  <v type="int" >       18 </v>
  <v type="int" >       29 </v>
  <v type="int" >       17 </v>
  <v type="int" >       69 </v>
  <v type="int" >       59 </v>
  <v type="int" >       24 </v>
  <v type="int" >       36 </v>
  <v type="int" >       42 </v>
  <v type="int" >       56 </v>
  <v type="int" >       66 </v>
  <v type="int" >       47 </v>
  <v type="int" >       55 </v>
  <v type="int" >       65 </v>
  <v type="int" >       37 </v>
  <v type="int" >       60 </v>
  <v type="int" >       70 </v>
  <v type="int" >       53 </v>
  <v type="int" >       67 </v>
  <v type="int" >        7 </v>
  <v type="int" >        6 </v>
  <v type="int" >       68 </v>
  <v type="int" >       54 </v>
  <v type="int" >       48 </v>
  <v type="int" >       12 </v>
  <v type="int" >        9 </v>
  <v type="int" >       11 </v>
  <v type="int" >       19 </v>
  <v type="int" >       31 </v>
  <v type="int" >       57 </v>
  <v type="int" >       71 </v>
  <v type="int" >        8 </v>
  <v type="int" >        5 </v>
  <v type="int" >       32 </v>
  <v type="int" >       20 </v>
  <v type="int" >       15 </v>
  <v type="int" >       27 </v>
  <v type="int" >       39 </v>
  <v type="int" >       40 </v>
  <v type="int" >       10 </v>
  <v type="int" >       58 </v>
  <v type="int" >       72 </v>
  <v type="int" >       28 </v>
  <v type="int" >       16 </v>
  <v type="int" >       26 </v>
  <v type="int" >       14 </v>
  <v type="int" >       43 </v>
  <v type="int" >       46 </v>
  <v type="int" >       33 </v>
  <v type="int" >       21 </v>
  <v type="int" >       44 </v>
  <v type="int" >       45 </v>
  <v type="int" >       61 </v>
  <v type="int" >       51 </v>
  <v type="int" >       62 </v>
  <v type="int" >       52 </v>
  <v type="int" >        3 </v>
  <v type="int" >       22 </v>
  <v type="int" >       34 </v>
  <v type="int" >        4 </v>
 </varray>
 <kpoints>
  <generation param="Gamma">
   <v type="int" name="divisions">       1        1        1 </v>
   <v name="usershift">      0.00000000       0.00000000       0.00000000 </v>
   <v name="genvec1">      1.00000000       0.00000000       0.00000000 </v>
   <v name="genvec2">      0.00000000       1.00000000       0.00000000 </v>
   <v name="genvec3">      0.00000000       0.00000000       1.00000000 </v>
   <v name="shift">      0.00000000       0.00000000       0.00000000 </v>
  </generation>
  <varray name="kpointlist" >
   <v>       0.00000000       0.00000000       0.00000000 </v>
  </varray>
  <varray name="weights" >
   <v>       1.00000000 </v>
  </varray>
 </kpoints>
 <parameters>
  <separator name="general" >
   <i type="string" name="SYSTEM">"Millerite NiS"</i>
   <i type="logical" name="LCOMPAT"> F  </i>
  </separator>
  <separator name="electronic" >
   <i type="string" name="PREC">normal</i>
   <i name="ENMAX">    450.00000000</i>
   <i name="ENAUG">    703.44300000</i>
   <i name="EDIFF">      0.00010000</i>
   <i type="int" name="IALGO">    38</i>
   <i type="int" name="IWAVPR">    10</i>
   <i type="int" name="NBANDS">   476</i>
   <i name="NELECT">    792.00000000</i>
   <i type="int" name="TURBO">     0</i>
   <i type="int" name="IRESTART">     0</i>
   <i type="int" name="NREBOOT">     0</i>
   <i type="int" name="NMIN">     0</i>
   <i name="EREF">      0.00000000</i>
   <separator name="electronic smearing" >
    <i type="int" name="ISMEAR">     0</i>
    <i name="SIGMA">      0.20000000</i>
    <i name="KSPACING">      0.50000000</i>
    <i type="logical" name="KGAMMA"> T  </i>
   </separator>
   <separator name="electronic projectors" >
    <i type="logical" name="LREAL"> T  </i>
    <v name="ROPT">     -0.00050000     -0.00050000</v>
    <i type="int" name="LMAXPAW">  -100</i>
    <i type="int" name="LMAXMIX">     2</i>
    <i type="logical" name="NLSPLINE"> F  </i>
   </separator>
   <separator name="electronic startup" >
    <i type="int" name="ISTART">     0</i>
    <i type="int" name="ICHARG">     2</i>
    <i type="int" name="INIWAV">     1</i>
   </separator>
   <separator name="electronic spin" >
    <i type="int" name="ISPIN">     1</i>
    <i type="logical" name="LNONCOLLINEAR"> F  </i>
    <v name="MAGMOM">      1.00000000      1.00000000      1.00000000      1.00000000      1.00000000      1.00000000      1.00000000      1.00000000      1.00000000      1.00000000      1.00000000      1.00000000      1.00000000      1.00000000      1.00000000      1.00000000      1.00000000      1.00000000      1.00000000      1.00000000
      1.00000000      1.00000000      1.00000000      1.00000000      1.00000000      1.00000000      1.00000000      1.00000000      1.00000000      1.00000000      1.00000000      1.00000000      1.00000000      1.00000000      1.00000000      1.00000000      1.00000000      1.00000000      1.00000000      1.00000000
      1.00000000      1.00000000      1.00000000      1.00000000      1.00000000      1.00000000      1.00000000      1.00000000      1.00000000      1.00000000      1.00000000      1.00000000      1.00000000      1.00000000      1.00000000      1.00000000      1.00000000      1.00000000      1.00000000      1.00000000
      1.00000000      1.00000000      1.00000000      1.00000000      1.00000000      1.00000000      1.00000000      1.00000000      1.00000000      1.00000000      1.00000000      1.00000000</v>
    <i name="NUPDOWN">     -1.00000000</i>
    <i type="logical" name="LSORBIT"> F  </i>
    <v name="SAXIS">      0.00000000      0.00000000      1.00000000</v>
    <i type="logical" name="LSPIRAL"> F  </i>
    <v name="QSPIRAL">      0.00000000      0.00000000      0.00000000</v>
    <i type="logical" name="LZEROZ"> F  </i>
   </separator>
   <separator name="electronic exchange-correlation" >
    <i type="logical" name="LASPH"> F  </i>
    <i type="logical" name="LMETAGGA"> F  </i>
   </separator>
   <separator name="electronic convergence" >
    <i type="int" name="NELM">   100</i>
    <i type="int" name="NELMDL">    -5</i>
    <i type="int" name="NELMIN">     2</i>
    <i name="ENINI">    450.00000000</i>
    <separator name="electronic convergence detail" >
     <i type="logical" name="LDIAG"> T  </i>
     <i type="logical" name="LSUBROT"> F  </i>
     <i name="WEIMIN">      0.00000000</i>
     <i name="EBREAK">      0.00000005</i>
     <i name="DEPER">      0.30000000</i>
     <i type="int" name="NRMM">     4</i>
     <i name="TIME">      0.40000000</i>
    </separator>
   </separator>
   <separator name="electronic mixer" >
    <i name="AMIX">      0.40000000</i>
    <i name="BMIX">      1.00000000</i>
    <i name="AMIN">      0.10000000</i>
    <i name="AMIX_MAG">      1.60000000</i>
    <i name="BMIX_MAG">      1.00000000</i>
    <separator name="electronic mixer details" >
     <i type="int" name="IMIX">     4</i>
     <i type="logical" name="MIXFIRST"> F  </i>
     <i type="int" name="MAXMIX">   -45</i>
     <i name="WC">    100.00000000</i>
     <i type="int" name="INIMIX">     1</i>
     <i type="int" name="MIXPRE">     1</i>
     <i type="int" name="MREMOVE">     5</i>
    </separator>
   </separator>
   <separator name="electronic dipolcorrection" >
    <i type="logical" name="LDIPOL"> F  </i>
    <i type="logical" name="LMONO"> F  </i>
    <i type="int" name="IDIPOL">     0</i>
    <i name="EPSILON">      1.00000000</i>
    <v name="DIPOL">   -100.00000000   -100.00000000   -100.00000000</v>
    <i name="EFIELD">      0.00000000</i>
   </separator>
  </separator>
  <separator name="grids" >
   <i type="int" name="NGX">    90</i>
   <i type="int" name="NGY">    50</i>
   <i type="int" name="NGZ">    84</i>
   <i type="int" name="NGXF">   180</i>
   <i type="int" name="NGYF">   100</i>
   <i type="int" name="NGZF">   168</i>
   <i type="logical" name="ADDGRID"> F  </i>
  </separator>
  <separator name="ionic" >
   <i type="int" name="NSW">     0</i>
   <i type="int" name="IBRION">    -1</i>
   <i type="int" name="MDALGO">     0</i>
   <i type="int" name="ISIF">     2</i>
   <i name="PSTRESS">      0.00000000</i>
   <i name="EDIFFG">      0.00100000</i>
   <i type="int" name="NFREE">     0</i>
   <i name="POTIM">      0.50000000</i>
   <i name="SMASS">     -3.00000000</i>
   <i name="SCALEE">      1.00000000</i>
  </separator>
  <separator name="ionic md" >
   <i name="TEBEG">      0.00010000</i>
   <i name="TEEND">      0.00010000</i>
   <i type="int" name="NBLOCK">     1</i>
   <i type="int" name="KBLOCK">     1</i>
   <i type="int" name="NPACO">   256</i>
   <i name="APACO">     16.00000000</i>
  </separator>
  <separator name="symmetry" >
   <i type="int" name="ISYM">     2</i>
   <i name="SYMPREC">      0.00001000</i>
  </separator>
  <separator name="dos" >
   <i type="int" name="LORBIT">     0</i>
   <v name="RWIGS">     -1.00000000     -1.00000000</v>
   <i type="int" name="NEDOS">   301</i>
   <i name="EMIN">     10.00000000</i>
   <i name="EMAX">    -10.00000000</i>
   <i name="EFERMI">      0.00000000</i>
  </separator>
  <separator name="writing" >
   <i type="int" name="NWRITE">     2</i>
   <i type="logical" name="LWAVE"> F  </i>
   <i type="logical" name="LDOWNSAMPLE"> F  </i>
   <i type="logical" name="LCHARG"> F  </i>
   <i type="logical" name="LPARD"> F  </i>
   <i type="logical" name="LVTOT"> F  </i>
   <i type="logical" name="LVHAR"> F  </i>
   <i type="logical" name="LELF"> F  </i>
   <i type="logical" name="LOPTICS"> F  </i>
   <v name="STM">      0.00000000      0.00000000      0.00000000      0.00000000      0.00000000      0.00000000      0.00000000</v>
  </separator>
  <separator name="performance" >
   <i type="int" name="NPAR">     2</i>
   <i type="int" name="NSIM">     4</i>
   <i type="int" name="NBLK">    -1</i>
   <i type="logical" name="LPLANE"> T  </i>
   <i type="logical" name="LSCALAPACK"> T  </i>
   <i type="logical" name="LSCAAWARE"> F  </i>
   <i type="logical" name="LSCALU"> F  </i>
   <i type="logical" name="LASYNC"> F  </i>
   <i type="logical" name="LORBITALREAL"> F  </i>
  </separator>
  <separator name="miscellaneous" >
   <i type="int" name="IDIOT">     3</i>
   <i type="int" name="ISPECIAL">     0</i>
   <i type="logical" name="LMUSIC"> F  </i>
   <v name="POMASS">     58.69000000     32.06600000</v>
   <v name="DARWINR">      0.00000000      0.00000000</v>
   <v name="DARWINV">      1.00000000      1.00000000</v>
   <i type="logical" name="LCORR"> T  </i>
  </separator>
  <i type="logical" name="GGA_COMPAT"> T  </i>
  <i type="logical" name="LBERRY"> F  </i>
  <i type="int" name="ICORELEVEL">     0</i>
  <i type="logical" name="LDAU"> F  </i>
  <i type="int" name="I_CONSTRAINED_M">     0</i>
  <separator name="electronic exchange-correlation" >
   <i type="string" name="GGA">--</i>
   <i type="int" name="VOSKOWN">     0</i>
   <i type="logical" name="LHFCALC"> F  </i>
   <i type="string" name="PRECFOCK"></i>
   <i type="logical" name="LSYMGRAD"> F  </i>
   <i type="logical" name="LHFONE"> F  </i>
   <i type="logical" name="LRHFCALC"> F  </i>
   <i type="logical" name="LTHOMAS"> F  </i>
   <i type="logical" name="LMODELHF"> F  </i>
   <i name="ENCUT4O">     -1.00000000</i>
   <i type="int" name="EXXOEP">     0</i>
   <i type="int" name="FOURORBIT">     0</i>
   <i name="AEXX">      0.00000000</i>
   <i name="HFALPHA">      0.00000000</i>
   <i name="MCALPHA">      0.00000000</i>
   <i name="ALDAX">      1.00000000</i>
   <i name="AGGAX">      1.00000000</i>
   <i name="ALDAC">      1.00000000</i>
   <i name="AGGAC">      1.00000000</i>
   <i type="int" name="NKREDX">     1</i>
   <i type="int" name="NKREDY">     1</i>
   <i type="int" name="NKREDZ">     1</i>
   <i type="logical" name="SHIFTRED"> F  </i>
   <i type="logical" name="ODDONLY"> F  </i>
   <i type="logical" name="EVENONLY"> F  </i>
   <i type="int" name="LMAXFOCK">     0</i>
   <i type="int" name="NMAXFOCKAE">     0</i>
   <i type="logical" name="LFOCKAEDFT"> F  </i>
   <i name="HFSCREEN">      0.00000000</i>
   <i name="HFSCREENC">      0.00000000</i>
   <i type="int" name="NBANDSGWLOW">     0</i>
  </separator>
  <separator name="vdW DFT" >
   <i type="logical" name="LUSE_VDW"> F  </i>
   <i name="Zab_VDW">     -0.84910000</i>
   <i name="PARAM1">      0.12340000</i>
   <i name="PARAM2">      1.00000000</i>
   <i name="PARAM3">      0.00000000</i>
  </separator>
  <separator name="model GW" >
   <i type="int" name="MODEL_GW">     0</i>
   <i name="MODEL_EPS0">     21.79168807</i>
   <i name="MODEL_ALPHA">      1.00000000</i>
  </separator>
  <separator name="linear response parameters" >
   <i type="logical" name="LEPSILON"> F  </i>
   <i type="logical" name="LRPA"> F  </i>
   <i type="logical" name="LNABLA"> F  </i>
   <i type="logical" name="LVEL"> F  </i>
   <i type="int" name="KINTER">     0</i>
   <i name="CSHIFT">      0.10000000</i>
   <i name="OMEGAMAX">     -1.00000000</i>
   <i name="DEG_THRESHOLD">      0.00200000</i>
   <i name="RTIME">     -0.10000000</i>
   <i name="WPLASMAI">      0.00000000</i>
   <v name="DFIELD">      0.00000000      0.00000000      0.00000000</v>
   <v name="WPLASMA">      0.00000000      0.00000000      0.00000000      0.00000000      0.00000000      0.00000000      0.00000000      0.00000000      0.00000000</v>
  </separator>
  <separator name="orbital magnetization" >
   <i type="logical" name="NUCIND"> F  </i>
   <v name="MAGPOS">      0.00000000      0.00000000      0.00000000</v>
   <i type="logical" name="LNICSALL"> T  </i>
   <i type="logical" name="ORBITALMAG"> F  </i>
   <i type="logical" name="LMAGBLOCH"> F  </i>
   <i type="logical" name="LCHIMAG"> F  </i>
   <i type="logical" name="LGAUGE"> T  </i>
   <i type="int" name="MAGATOM">     0</i>
   <v name="MAGDIPOL">      0.00000000      0.00000000      0.00000000</v>
   <v name="AVECCONST">      0.00000000      0.00000000      0.00000000</v>
  </separator>
  <separator name="response functions" >
   <i type="logical" name="LADDER"> F  </i>
   <i type="logical" name="LRPAFORCE"> F  </i>
   <i type="logical" name="LFXC"> F  </i>
   <i type="logical" name="LHARTREE"> T  </i>
   <i type="int" name="IBSE">     0</i>
   <v type="int" name="KPOINT">    -1     0     0     0</v>
   <i type="logical" name="LTCTE"> F  </i>
   <i type="logical" name="LTETE"> F  </i>
   <i type="logical" name="LTRIPLET"> F  </i>
   <i type="logical" name="LFXCEPS"> F  </i>
   <i type="logical" name="LFXHEG"> F  </i>
   <i type="int" name="NATURALO">     2</i>
   <i type="logical" name="L2ORDER"> F  </i>
   <i type="logical" name="LMP2LT"> F  </i>
   <i type="logical" name="LUSEW"> F  </i>
   <i name="ENCUTGW">     -2.00000000</i>
   <i name="ENCUTGWSOFT">     -2.00000000</i>
   <i name="ENCUTLF">     -1.00000000</i>
   <i type="int" name="LMAXMP2">    -1</i>
   <i name="SCISSOR">      0.00000000</i>
   <i type="int" name="NOMEGA">     0</i>
   <i type="int" name="NOMEGAR">     0</i>
   <i type="int" name="NBANDSGW">    -1</i>
   <i type="int" name="NBANDSO">    -1</i>
   <i type="int" name="NBANDSV">    -1</i>
   <i type="int" name="NELM">   100</i>
   <i type="int" name="NELMHF">     1</i>
   <i type="int" name="DIM">     3</i>
   <i type="int" name="ANTIRES">     0</i>
   <i name="OMEGAMAX">    -30.00000000</i>
   <i name="OMEGAMIN">    -30.00000000</i>
   <i name="OMEGATL">   -200.00000000</i>
   <i type="int" name="OMEGAGRID">   140</i>
   <i name="CSHIFT">     -0.10000000</i>
   <i type="logical" name="SELFENERGY"> F  </i>
   <i type="logical" name="LSPECTRAL"> F  </i>
   <i type="logical" name="LSPECTRALGW"> F  </i>
   <i type="logical" name="LSINGLES"> F  </i>
   <i type="logical" name="LFERMIGW"> F  </i>
   <i type="logical" name="ODDONLYGW"> F  </i>
   <i type="logical" name="EVENONLYGW"> F  </i>
   <i type="int" name="NKREDLFX">     1</i>
   <i type="int" name="NKREDLFY">     1</i>
   <i type="int" name="NKREDLFZ">     1</i>
   <i type="int" name="MAXMEM">  2800</i>
   <i type="int" name="TELESCOPE">     0</i>
   <i type="int" name="TAUPAR">     1</i>
   <i type="int" name="OMEGAPAR">    -1</i>
   <i name="LAMBDA">      1.00000000</i>
  </separator>
  <separator name="External order field" >
   <i name="OFIELD_KAPPA">      0.00000000</i>
   <v name="OFIELD_K">      0.00000000      0.00000000      0.00000000</v>
   <i name="OFIELD_Q6_NEAR">      0.00000000</i>
   <i name="OFIELD_Q6_FAR">      0.00000000</i>
   <i name="OFIELD_A">      0.00000000</i>
  </separator>
 </parameters>
 <atominfo>
  <atoms>      72 </atoms>
  <types>       2 </types>
  <array name="atoms" >
   <dimension dim="1">ion</dimension>
   <field type="string">element</field>
   <field type="int">atomtype</field>
   <set>
    <rc><c>Ni</c><c>   1</c></rc>
    <rc><c>Ni</c><c>   1</c></rc>
    <rc><c>Ni</c><c>   1</c></rc>
    <rc><c>Ni</c><c>   1</c></rc>
    <rc><c>Ni</c><c>   1</c></rc>
    <rc><c>Ni</c><c>   1</c></rc>
    <rc><c>Ni</c><c>   1</c></rc>
    <rc><c>Ni</c><c>   1</c></rc>
    <rc><c>Ni</c><c>   1</c></rc>
    <rc><c>Ni</c><c>   1</c></rc>
    <rc><c>Ni</c><c>   1</c></rc>
    <rc><c>Ni</c><c>   1</c></rc>
    <rc><c>Ni</c><c>   1</c></rc>
    <rc><c>Ni</c><c>   1</c></rc>
    <rc><c>Ni</c><c>   1</c></rc>
    <rc><c>Ni</c><c>   1</c></rc>
    <rc><c>Ni</c><c>   1</c></rc>
    <rc><c>Ni</c><c>   1</c></rc>
    <rc><c>Ni</c><c>   1</c></rc>
    <rc><c>Ni</c><c>   1</c></rc>
    <rc><c>Ni</c><c>   1</c></rc>
    <rc><c>Ni</c><c>   1</c></rc>
    <rc><c>Ni</c><c>   1</c></rc>
    <rc><c>Ni</c><c>   1</c></rc>
    <rc><c>Ni</c><c>   1</c></rc>
    <rc><c>Ni</c><c>   1</c></rc>
    <rc><c>Ni</c><c>   1</c></rc>
    <rc><c>Ni</c><c>   1</c></rc>
    <rc><c>Ni</c><c>   1</c></rc>
    <rc><c>Ni</c><c>   1</c></rc>
    <rc><c>Ni</c><c>   1</c></rc>
    <rc><c>Ni</c><c>   1</c></rc>
    <rc><c>Ni</c><c>   1</c></rc>
    <rc><c>Ni</c><c>   1</c></rc>
    <rc><c>Ni</c><c>   1</c></rc>
    <rc><c>Ni</c><c>   1</c></rc>
    <rc><c>S </c><c>   2</c></rc>
    <rc><c>S </c><c>   2</c></rc>
    <rc><c>S </c><c>   2</c></rc>
    <rc><c>S </c><c>   2</c></rc>
    <rc><c>S </c><c>   2</c></rc>
    <rc><c>S </c><c>   2</c></rc>
    <rc><c>S </c><c>   2</c></rc>
    <rc><c>S </c><c>   2</c></rc>
    <rc><c>S </c><c>   2</c></rc>
    <rc><c>S </c><c>   2</c></rc>
    <rc><c>S </c><c>   2</c></rc>
    <rc><c>S </c><c>   2</c></rc>
    <rc><c>S </c><c>   2</c></rc>
    <rc><c>S </c><c>   2</c></rc>
    <rc><c>S </c><c>   2</c></rc>
    <rc><c>S </c><c>   2</c></rc>
    <rc><c>S </c><c>   2</c></rc>
    <rc><c>S </c><c>   2</c></rc>
    <rc><c>S </c><c>   2</c></rc>
    <rc><c>S </c><c>   2</c></rc>
    <rc><c>S </c><c>   2</c></rc>
    <rc><c>S </c><c>   2</c></rc>
    <rc><c>S </c><c>   2</c></rc>
    <rc><c>S </c><c>   2</c></rc>
    <rc><c>S </c><c>   2</c></rc>
    <rc><c>S </c><c>   2</c></rc>
    <rc><c>S </c><c>   2</c></rc>
    <rc><c>S </c><c>   2</c></rc>
    <rc><c>S </c><c>   2</c></rc>
    <rc><c>S </c><c>   2</c></rc>
    <rc><c>S </c><c>   2</c></rc>
    <rc><c>S </c><c>   2</c></rc>
    <rc><c>S </c><c>   2</c></rc>
    <rc><c>S </c><c>   2</c></rc>
    <rc><c>S </c><c>   2</c></rc>
    <rc><c>S </c><c>   2</c></rc>
   </set>
  </array>
  <array name="atomtypes" >
   <dimension dim="1">type</dimension>
   <field type="int">atomspertype</field>
   <field type="string">element</field>
   <field>mass</field>
   <field>valence</field>
   <field type="string">pseudopotential</field>
   <set>
    <rc><c>  36</c><c>Ni</c><c>     58.69000000</c><c>     16.00000000</c><c>  PAW_PBE Ni_pv 06Sep2000               </c></rc>
    <rc><c>  36</c><c>S </c><c>     32.06600000</c><c>      6.00000000</c><c>  PAW_PBE S 06Sep2000                   </c></rc>
   </set>
  </array>
 </atominfo>
 <structure name="initialpos" >
  <crystal>
   <varray name="basis" >
    <v>      16.88469405       0.00000000       0.00000000 </v>
    <v>       0.00000000       9.57841000       0.00000000 </v>
    <v>       0.00000000       0.00000000      16.16908712 </v>
   </varray>
   <i name="volume">   2615.00256803 </i>
   <varray name="rec_basis" >
    <v>       0.05922524       0.00000000       0.00000000 </v>
    <v>       0.00000000       0.10440146       0.00000000 </v>
    <v>       0.00000000       0.00000000       0.06184641 </v>
   </varray>
  </crystal>
  <varray name="positions" >
   <v>       0.78004631       0.14529695       0.12058499 </v>
   <v>       0.72232316       0.14529695       0.24972186 </v>
   <v>       0.22517816       0.64529695       0.09307363 </v>
   <v>       0.29733029       0.64529695       0.21596896 </v>
   <v>       0.39449420       0.14529695       0.12497037 </v>
   <v>       0.46975828       0.14529695       0.24776362 </v>
   <v>       0.95247430       0.64529695       0.15237965 </v>
   <v>       0.97638468       0.64529695       0.29792791 </v>
   <v>       0.12490229       0.14529695       0.18417431 </v>
   <v>       0.14584651       0.14529695       0.34699912 </v>
   <v>       0.57045290       0.64529695       0.15995263 </v>
   <v>       0.64218627       0.64529695       0.27955828 </v>
   <v>       0.90006429       0.92675993       0.13747849 </v>
   <v>       0.39429237       0.51712258       0.03437372 </v>
   <v>       0.42486676       0.51319395       0.19076795 </v>
   <v>       0.44684520       0.50088789       0.34472920 </v>
   <v>       0.56619148       0.01711990       0.06534610 </v>
   <v>       0.59729475       0.01319395       0.22256260 </v>
   <v>       0.08001077       0.51319395       0.12717863 </v>
   <v>       0.09962015       0.49354084       0.27635914 </v>
   <v>       0.25243876       0.01319395       0.15897329 </v>
   <v>       0.28564201       0.00177615       0.32234289 </v>
   <v>       0.76080664       0.43495882       0.11608528 </v>
   <v>       0.76972274       0.51319395       0.25435726 </v>
   <v>       0.90006429       0.36383398       0.13747849 </v>
   <v>       0.39429237       0.77347133       0.03437372 </v>
   <v>       0.42486676       0.77739995       0.19076795 </v>
   <v>       0.44684520       0.78970602       0.34472920 </v>
   <v>       0.56619148       0.27347401       0.06534610 </v>
   <v>       0.59729475       0.27739995       0.22256260 </v>
   <v>       0.08001077       0.77739995       0.12717863 </v>
   <v>       0.09962015       0.79705307       0.27635914 </v>
   <v>       0.25243876       0.27739995       0.15897329 </v>
   <v>       0.28564201       0.28881776       0.32234289 </v>
   <v>       0.76080664       0.85563509       0.11608528 </v>
   <v>       0.76972274       0.77739995       0.25435726 </v>
   <v>       0.04533595       0.14529695       0.27926328 </v>
   <v>       0.91139191       0.14529695       0.13598872 </v>
   <v>       0.47417723       0.64529695       0.08702573 </v>
   <v>       0.50874518       0.64529695       0.27779368 </v>
   <v>       0.64660522       0.14529695       0.11882039 </v>
   <v>       0.62598092       0.14529695       0.32120734 </v>
   <v>       0.11995015       0.64529695       0.03443310 </v>
   <v>       0.16388920       0.64529695       0.21420436 </v>
   <v>       0.28830832       0.14529695       0.06614442 </v>
   <v>       0.33631719       0.14529695       0.24599902 </v>
   <v>       0.81903321       0.64529695       0.15061505 </v>
   <v>       0.85438050       0.64529695       0.31225509 </v>
   <v>       0.82211646       0.30576684       0.04195966 </v>
   <v>       0.80132993       0.30845767       0.21633563 </v>
   <v>       0.31177708       0.81351195       0.11911576 </v>
   <v>       0.33881413       0.81120174       0.29123347 </v>
   <v>       0.48420507       0.31351195       0.15091042 </v>
   <v>       0.50608890       0.32239765       0.31437170 </v>
   <v>       0.98849236       0.82465803       0.22438349 </v>
   <v>       0.97212408       0.80236746       0.06379155 </v>
   <v>       0.13990038       0.32198986       0.11099746 </v>
   <v>       0.17391704       0.31351195       0.27808905 </v>
   <v>       0.65663306       0.81351195       0.18270508 </v>
   <v>       0.69613338       0.78887769       0.35264967 </v>
   <v>       0.31177708       0.47708195       0.11911576 </v>
   <v>       0.33881413       0.47939217       0.29123347 </v>
   <v>       0.82211646       0.98482706       0.04195966 </v>
   <v>       0.80132993       0.98213624       0.21633563 </v>
   <v>       0.98849236       0.46593588       0.22438349 </v>
   <v>       0.97212408       0.48822645       0.06379155 </v>
   <v>       0.48420507       0.97708195       0.15091042 </v>
   <v>       0.50608890       0.96819626       0.31437170 </v>
   <v>       0.65663306       0.47708195       0.18270508 </v>
   <v>       0.69613338       0.50171622       0.35264967 </v>
   <v>       0.13990038       0.96860405       0.11099746 </v>
   <v>       0.17391704       0.97708195       0.27808905 </v>
  </varray>
 </structure>
 <calculation>
  <scstep>
   <time name="dav">    8.35    8.36</time>
   <time name="total">    8.70    8.70</time>
   <energy>
    <i name="alphaZ">   1422.52235994 </i>
    <i name="ewald"> 148367.34977400 </i>
    <i name="hartreedc">-268676.14413649 </i>
    <i name="XCdc">   3681.41939465 </i>
    <i name="pawpsdc"> 112729.53333415 </i>
    <i name="pawaedc">-117641.51188735 </i>
    <i name="eentropy">     -0.50356336 </i>
    <i name="bandstr">  -6991.70133613 </i>
    <i name="atom"> 136002.60505376 </i>
    <i name="e_fr_energy">   8893.56899317 </i>
    <i name="e_wo_entrp">   8894.07255654 </i>
    <i name="e_0_energy">   8893.82077485 </i>
   </energy>
  </scstep>
  <scstep>
   <time name="dav">    7.72    7.72</time>
   <time name="total">    7.72    7.72</time>
   <energy>
    <i name="e_fr_energy">    489.57995107 </i>
    <i name="e_wo_entrp">    490.38932209 </i>
    <i name="e_0_energy">    489.98463658 </i>
   </energy>
  </scstep>
  <scstep>
   <time name="dav">    7.89    7.89</time>
   <time name="total">    7.89    7.90</time>
   <energy>
    <i name="e_fr_energy">   -340.88372030 </i>
    <i name="e_wo_entrp">   -339.79215890 </i>
    <i name="e_0_energy">   -340.33793960 </i>
   </energy>
  </scstep>
  <scstep>
   <time name="dav">    8.22    8.22</time>
   <time name="total">    8.22    8.22</time>
   <energy>
    <i name="e_fr_energy">   -385.56644444 </i>
    <i name="e_wo_entrp">   -384.48475728 </i>
    <i name="e_0_energy">   -385.02560086 </i>
   </energy>
  </scstep>
  <scstep>
   <time name="dav">    8.56    8.56</time>
   <time name="total">    8.87    8.87</time>
   <energy>
    <i name="e_fr_energy">   -387.16387739 </i>
    <i name="e_wo_entrp">   -386.08910411 </i>
    <i name="e_0_energy">   -386.62649075 </i>
   </energy>
  </scstep>
  <scstep>
   <time name="dav">    8.63    8.64</time>
   <time name="total">    9.26    9.27</time>
   <energy>
    <i name="e_fr_energy">   -457.25552556 </i>
    <i name="e_wo_entrp">   -456.60375561 </i>
    <i name="e_0_energy">   -456.92964059 </i>
   </energy>
  </scstep>
  <scstep>
   <time name="dav">    8.10    8.10</time>
   <time name="total">    8.74    8.74</time>
   <energy>
    <i name="e_fr_energy">   -351.80666710 </i>
    <i name="e_wo_entrp">   -350.84296720 </i>
    <i name="e_0_energy">   -351.32481715 </i>
   </energy>
  </scstep>
  <scstep>
   <time name="dav">    9.13    9.13</time>
   <time name="total">    9.76    9.77</time>
   <energy>
    <i name="e_fr_energy">   -376.77380638 </i>
    <i name="e_wo_entrp">   -375.86796126 </i>
    <i name="e_0_energy">   -376.32088382 </i>
   </energy>
  </scstep>
  <scstep>
   <time name="dav">    8.78    8.79</time>
   <time name="total">    9.53    9.54</time>
   <energy>
    <i name="e_fr_energy">   -355.69799354 </i>
    <i name="e_wo_entrp">   -354.36223881 </i>
    <i name="e_0_energy">   -355.03011618 </i>
   </energy>
  </scstep>
  <scstep>
   <time name="dav">    9.43    9.44</time>
   <time name="total">   10.07   10.07</time>
   <energy>
    <i name="e_fr_energy">   -367.08392211 </i>
    <i name="e_wo_entrp">   -366.02434909 </i>
    <i name="e_0_energy">   -366.55413560 </i>
   </energy>
  </scstep>
  <scstep>
   <time name="dav">    9.23    9.23</time>
   <time name="total">    9.87    9.87</time>
   <energy>
    <i name="e_fr_energy">   -342.18355839 </i>
    <i name="e_wo_entrp">   -341.19419901 </i>
    <i name="e_0_energy">   -341.68887870 </i>
   </energy>
  </scstep>
  <scstep>
   <time name="dav">    9.24    9.24</time>
   <time name="total">    9.89    9.89</time>
   <energy>
    <i name="e_fr_energy">   -338.08691702 </i>
    <i name="e_wo_entrp">   -336.96388723 </i>
    <i name="e_0_energy">   -337.52540212 </i>
   </energy>
  </scstep>
  <scstep>
   <time name="dav">    8.96    8.96</time>
   <time name="total">    9.62    9.62</time>
   <energy>
    <i name="e_fr_energy">   -337.55498507 </i>
    <i name="e_wo_entrp">   -336.49831475 </i>
    <i name="e_0_energy">   -337.02664991 </i>
   </energy>
  </scstep>
  <scstep>
   <time name="dav">    8.80    8.80</time>
   <time name="total">    9.51    9.51</time>
   <energy>
    <i name="e_fr_energy">   -336.95213253 </i>
    <i name="e_wo_entrp">   -335.81135897 </i>
    <i name="e_0_energy">   -336.38174575 </i>
   </energy>
  </scstep>
  <scstep>
   <time name="dav">    8.91    8.92</time>
   <time name="total">    9.56    9.56</time>
   <energy>
    <i name="e_fr_energy">   -337.02431860 </i>
    <i name="e_wo_entrp">   -335.89779102 </i>
    <i name="e_0_energy">   -336.46105481 </i>
   </energy>
  </scstep>
  <scstep>
   <time name="dav">    9.10    9.11</time>
   <time name="total">    9.75    9.76</time>
   <energy>
    <i name="e_fr_energy">   -336.40228367 </i>
    <i name="e_wo_entrp">   -335.30709543 </i>
    <i name="e_0_energy">   -335.85468955 </i>
   </energy>
  </scstep>
  <scstep>
   <time name="dav">    9.00    9.00</time>
   <time name="total">    9.69    9.69</time>
   <energy>
    <i name="e_fr_energy">   -336.35370442 </i>
    <i name="e_wo_entrp">   -335.21804345 </i>
    <i name="e_0_energy">   -335.78587394 </i>
   </energy>
  </scstep>
  <scstep>
   <time name="dav">    8.69    8.69</time>
   <time name="total">    9.42    9.42</time>
   <energy>
    <i name="e_fr_energy">   -336.29923958 </i>
    <i name="e_wo_entrp">   -335.18821084 </i>
    <i name="e_0_energy">   -335.74372521 </i>
   </energy>
  </scstep>
  <scstep>
   <time name="dav">    9.08    9.09</time>
   <time name="total">    9.73    9.73</time>
   <energy>
    <i name="e_fr_energy">   -336.28536406 </i>
    <i name="e_wo_entrp">   -335.15947870 </i>
    <i name="e_0_energy">   -335.72242138 </i>
   </energy>
  </scstep>
  <scstep>
   <time name="dav">    8.93    8.94</time>
   <time name="total">    9.58    9.59</time>
   <energy>
    <i name="e_fr_energy">   -336.22579981 </i>
    <i name="e_wo_entrp">   -335.10140836 </i>
    <i name="e_0_energy">   -335.66360408 </i>
   </energy>
  </scstep>
  <scstep>
   <time name="dav">    8.73    8.73</time>
   <time name="total">    9.43    9.44</time>
   <energy>
    <i name="e_fr_energy">   -336.21053687 </i>
    <i name="e_wo_entrp">   -335.07570467 </i>
    <i name="e_0_energy">   -335.64312077 </i>
   </energy>
  </scstep>
  <scstep>
   <time name="dav">    8.62    8.62</time>
   <time name="total">    9.36    9.36</time>
   <energy>
    <i name="e_fr_energy">   -336.19668554 </i>
    <i name="e_wo_entrp">   -335.05907619 </i>
    <i name="e_0_energy">   -335.62788087 </i>
   </energy>
  </scstep>
  <scstep>
   <time name="dav">    9.24    9.24</time>
   <time name="total">    9.90    9.90</time>
   <energy>
    <i name="e_fr_energy">   -336.19328626 </i>
    <i name="e_wo_entrp">   -335.05632122 </i>
    <i name="e_0_energy">   -335.62480374 </i>
   </energy>
  </scstep>
  <scstep>
   <time name="dav">    9.17    9.18</time>
   <time name="total">    9.83    9.83</time>
   <energy>
    <i name="e_fr_energy">   -336.19153897 </i>
    <i name="e_wo_entrp">   -335.05653169 </i>
    <i name="e_0_energy">   -335.62403533 </i>
   </energy>
  </scstep>
  <scstep>
   <time name="dav">    9.51    9.51</time>
   <time name="total">   10.17   10.17</time>
   <energy>
    <i name="e_fr_energy">   -336.18709303 </i>
    <i name="e_wo_entrp">   -335.05167273 </i>
    <i name="e_0_energy">   -335.61938288 </i>
   </energy>
  </scstep>
  <scstep>
   <time name="dav">    8.98    8.98</time>
   <time name="total">    9.64    9.64</time>
   <energy>
    <i name="e_fr_energy">   -336.18302054 </i>
    <i name="e_wo_entrp">   -335.04651676 </i>
    <i name="e_0_energy">   -335.61476865 </i>
   </energy>
  </scstep>
  <scstep>
   <time name="dav">    9.23    9.24</time>
   <time name="total">    9.95    9.95</time>
   <energy>
    <i name="e_fr_energy">   -336.18174598 </i>
    <i name="e_wo_entrp">   -335.04762123 </i>
    <i name="e_0_energy">   -335.61468360 </i>
   </energy>
  </scstep>
  <scstep>
   <time name="dav">    8.48    8.49</time>
   <time name="total">    9.14    9.15</time>
   <energy>
    <i name="e_fr_energy">   -336.18046438 </i>
    <i name="e_wo_entrp">   -335.04541499 </i>
    <i name="e_0_energy">   -335.61293969 </i>
   </energy>
  </scstep>
  <scstep>
   <time name="dav">    8.27    8.27</time>
   <time name="total">    9.15    9.16</time>
   <energy>
    <i name="e_fr_energy">   -336.18088189 </i>
    <i name="e_wo_entrp">   -335.04574156 </i>
    <i name="e_0_energy">   -335.61331172 </i>
   </energy>
  </scstep>
  <scstep>
   <time name="dav">    7.57    7.57</time>
   <time name="total">    8.23    8.24</time>
   <energy>
    <i name="e_fr_energy">   -336.18066337 </i>
    <i name="e_wo_entrp">   -335.04621275 </i>
    <i name="e_0_energy">   -335.61343806 </i>
   </energy>
  </scstep>
  <scstep>
   <time name="dav">    7.48    7.48</time>
   <time name="total">    8.18    8.18</time>
   <energy>
    <i name="e_fr_energy">   -336.18106003 </i>
    <i name="e_wo_entrp">   -335.04611171 </i>
    <i name="e_0_energy">   -335.61358587 </i>
   </energy>
  </scstep>
  <scstep>
   <time name="dav">    6.99    6.99</time>
   <time name="total">    7.66    7.66</time>
   <energy>
    <i name="e_fr_energy">   -336.18174197 </i>
    <i name="e_wo_entrp">   -335.04682781 </i>
    <i name="e_0_energy">   -335.61428489 </i>
   </energy>
  </scstep>
  <scstep>
   <time name="dav">    6.23    6.23</time>
   <time name="total">    6.91    6.91</time>
   <energy>
    <i name="e_fr_energy">   -336.18213561 </i>
    <i name="e_wo_entrp">   -335.04757460 </i>
    <i name="e_0_energy">   -335.61485511 </i>
   </energy>
  </scstep>
  <scstep>
   <time name="dav">    5.16    5.16</time>
   <time name="total">    5.84    5.84</time>
   <energy>
    <i name="e_fr_energy">   -336.18236385 </i>
    <i name="e_wo_entrp">   -335.04777259 </i>
    <i name="e_0_energy">   -335.61506822 </i>
   </energy>
  </scstep>
  <scstep>
   <time name="dav">    5.12    5.12</time>
   <time name="total">    5.80    5.80</time>
   <energy>
    <i name="e_fr_energy">   -336.18252752 </i>
    <i name="e_wo_entrp">   -335.04793329 </i>
    <i name="e_0_energy">   -335.61523041 </i>
   </energy>
  </scstep>
  <scstep>
   <time name="dav">    4.97    4.97</time>
   <time name="total">    5.82    5.82</time>
   <energy>
    <i name="e_fr_energy">   -336.18301251 </i>
    <i name="e_wo_entrp">   -335.04854456 </i>
    <i name="e_0_energy">   -335.61577854 </i>
   </energy>
  </scstep>
  <scstep>
   <time name="dav">    5.59    5.59</time>
   <time name="total">    6.33    6.34</time>
   <energy>
    <i name="e_fr_energy">   -336.18354452 </i>
    <i name="e_wo_entrp">   -335.04886321 </i>
    <i name="e_0_energy">   -335.61620386 </i>
   </energy>
  </scstep>
  <scstep>
   <time name="dav">    5.68    5.69</time>
   <time name="total">    6.37    6.37</time>
   <energy>
    <i name="e_fr_energy">   -336.18431725 </i>
    <i name="e_wo_entrp">   -335.04979896 </i>
    <i name="e_0_energy">   -335.61705811 </i>
   </energy>
  </scstep>
  <scstep>
   <time name="dav">    5.11    5.11</time>
   <time name="total">    5.81    5.81</time>
   <energy>
    <i name="e_fr_energy">   -336.18447592 </i>
    <i name="e_wo_entrp">   -335.04997610 </i>
    <i name="e_0_energy">   -335.61722601 </i>
   </energy>
  </scstep>
  <scstep>
   <time name="dav">    5.18    5.18</time>
   <time name="total">    5.88    5.88</time>
   <energy>
    <i name="e_fr_energy">   -336.18471348 </i>
    <i name="e_wo_entrp">   -335.05014454 </i>
    <i name="e_0_energy">   -335.61742901 </i>
   </energy>
  </scstep>
  <scstep>
   <time name="dav">    5.14    5.14</time>
   <time name="total">    5.48    5.48</time>
   <energy>
    <i name="alphaZ">   1422.52235994 </i>
    <i name="ewald"> 148367.34977400 </i>
    <i name="hartreedc">-268115.69709413 </i>
    <i name="XCdc">   3652.96724639 </i>
    <i name="pawpsdc"> 140808.60647600 </i>
    <i name="pawaedc">-145799.40003855 </i>
    <i name="eentropy">     -1.13437354 </i>
    <i name="bandstr"> -16674.00420085 </i>
    <i name="atom"> 136002.60505376 </i>
    <i name="e_fr_energy">   -336.18479698 </i>
    <i name="e_wo_entrp">   -335.05042344 </i>
    <i name="e_0_energy">   -335.61761021 </i>
   </energy>
  </scstep>
  <structure>
   <crystal>
    <varray name="basis" >
     <v>      16.88469405       0.00000000       0.00000000 </v>
     <v>       0.00000000       9.57841000       0.00000000 </v>
     <v>       0.00000000       0.00000000      16.16908712 </v>
    </varray>
    <i name="volume">   2615.00256803 </i>
    <varray name="rec_basis" >
     <v>       0.05922524       0.00000000       0.00000000 </v>
     <v>       0.00000000       0.10440146       0.00000000 </v>
     <v>       0.00000000       0.00000000       0.06184641 </v>
    </varray>
   </crystal>
   <varray name="positions" >
    <v>       0.78004631       0.14529695       0.12058499 </v>
    <v>       0.72232316       0.14529695       0.24972186 </v>
    <v>       0.22517816       0.64529695       0.09307363 </v>
    <v>       0.29733029       0.64529695       0.21596896 </v>
    <v>       0.39449420       0.14529695       0.12497037 </v>
    <v>       0.46975828       0.14529695       0.24776362 </v>
    <v>       0.95247430       0.64529695       0.15237965 </v>
    <v>       0.97638468       0.64529695       0.29792791 </v>
    <v>       0.12490229       0.14529695       0.18417431 </v>
    <v>       0.14584651       0.14529695       0.34699912 </v>
    <v>       0.57045290       0.64529695       0.15995263 </v>
    <v>       0.64218627       0.64529695       0.27955828 </v>
    <v>       0.90006429       0.92675993       0.13747849 </v>
    <v>       0.39429237       0.51712258       0.03437372 </v>
    <v>       0.42486676       0.51319395       0.19076795 </v>
    <v>       0.44684520       0.50088789       0.34472920 </v>
    <v>       0.56619148       0.01711990       0.06534610 </v>
    <v>       0.59729475       0.01319395       0.22256260 </v>
    <v>       0.08001077       0.51319395       0.12717863 </v>
    <v>       0.09962015       0.49354084       0.27635914 </v>
    <v>       0.25243876       0.01319395       0.15897329 </v>
    <v>       0.28564201       0.00177615       0.32234289 </v>
    <v>       0.76080664       0.43495882       0.11608528 </v>
    <v>       0.76972274       0.51319395       0.25435726 </v>
    <v>       0.90006429       0.36383398       0.13747849 </v>
    <v>       0.39429237       0.77347133       0.03437372 </v>
    <v>       0.42486676       0.77739995       0.19076795 </v>
    <v>       0.44684520       0.78970602       0.34472920 </v>
    <v>       0.56619148       0.27347401       0.06534610 </v>
    <v>       0.59729475       0.27739995       0.22256260 </v>
    <v>       0.08001077       0.77739995       0.12717863 </v>
    <v>       0.09962015       0.79705307       0.27635914 </v>
    <v>       0.25243876       0.27739995       0.15897329 </v>
    <v>       0.28564201       0.28881776       0.32234289 </v>
    <v>       0.76080664       0.85563509       0.11608528 </v>
    <v>       0.76972274       0.77739995       0.25435726 </v>
    <v>       0.04533595       0.14529695       0.27926328 </v>
    <v>       0.91139191       0.14529695       0.13598872 </v>
    <v>       0.47417723       0.64529695       0.08702573 </v>
    <v>       0.50874518       0.64529695       0.27779368 </v>
    <v>       0.64660522       0.14529695       0.11882039 </v>
    <v>       0.62598092       0.14529695       0.32120734 </v>
    <v>       0.11995015       0.64529695       0.03443310 </v>
    <v>       0.16388920       0.64529695       0.21420436 </v>
    <v>       0.28830832       0.14529695       0.06614442 </v>
    <v>       0.33631719       0.14529695       0.24599902 </v>
    <v>       0.81903321       0.64529695       0.15061505 </v>
    <v>       0.85438050       0.64529695       0.31225509 </v>
    <v>       0.82211646       0.30576684       0.04195966 </v>
    <v>       0.80132993       0.30845767       0.21633563 </v>
    <v>       0.31177708       0.81351195       0.11911576 </v>
    <v>       0.33881413       0.81120174       0.29123347 </v>
    <v>       0.48420507       0.31351195       0.15091042 </v>
    <v>       0.50608890       0.32239765       0.31437170 </v>
    <v>       0.98849236       0.82465803       0.22438349 </v>
    <v>       0.97212408       0.80236746       0.06379155 </v>
    <v>       0.13990038       0.32198986       0.11099746 </v>
    <v>       0.17391704       0.31351195       0.27808905 </v>
    <v>       0.65663306       0.81351195       0.18270508 </v>
    <v>       0.69613338       0.78887769       0.35264967 </v>
    <v>       0.31177708       0.47708195       0.11911576 </v>
    <v>       0.33881413       0.47939217       0.29123347 </v>
    <v>       0.82211646       0.98482706       0.04195966 </v>
    <v>       0.80132993       0.98213624       0.21633563 </v>
    <v>       0.98849236       0.46593588       0.22438349 </v>
    <v>       0.97212408       0.48822645       0.06379155 </v>
    <v>       0.48420507       0.97708195       0.15091042 </v>
    <v>       0.50608890       0.96819626       0.31437170 </v>
    <v>       0.65663306       0.47708195       0.18270508 </v>
    <v>       0.69613338       0.50171622       0.35264967 </v>
    <v>       0.13990038       0.96860405       0.11099746 </v>
    <v>       0.17391704       0.97708195       0.27808905 </v>
   </varray>
  </structure>
  <varray name="forces" >
   <v>       0.14790054       0.00000000      -0.85031570 </v>
   <v>       0.60421265       0.00000000       0.41913955 </v>
   <v>       1.13787714       0.00000000      -0.09668042 </v>
   <v>      -0.14490349       0.00000000      -0.10819861 </v>
   <v>       0.85302968       0.00000000      -0.29091808 </v>
   <v>      -0.51231686       0.00000000      -0.62414107 </v>
   <v>      -0.80645574       0.00000000      -0.64677026 </v>
   <v>       0.13437234       0.00000000       0.79221816 </v>
   <v>       0.62928571       0.00000000       1.04123665 </v>
   <v>       0.87429652       0.00000000       2.12512826 </v>
   <v>       0.46663818       0.00000000      -0.19191968 </v>
   <v>      -0.89796041       0.00000000      -1.17436873 </v>
   <v>       0.96461506      -0.41715168       1.13919876 </v>
   <v>       0.21426100      -0.45779977      -1.11701199 </v>
   <v>       0.03707960      -0.25550732      -0.44610221 </v>
   <v>       0.37168035       0.03709487       1.02718441 </v>
   <v>       0.09187095      -0.48285459      -1.02929671 </v>
   <v>      -0.32680331      -0.85736467      -0.84284503 </v>
   <v>       0.23866827      -0.30899483       0.87510444 </v>
   <v>       0.56121320       0.33759405       1.17984220 </v>
   <v>       0.46844012      -0.96291727       1.45696701 </v>
   <v>       0.20265639      -0.09596547       0.74683483 </v>
   <v>      -0.55567681       1.40756908      -0.31042126 </v>
   <v>       0.46750563       0.91609132      -0.96045903 </v>
   <v>       0.96461506       0.41715168       1.13919876 </v>
   <v>       0.21426100       0.45779977      -1.11701199 </v>
   <v>       0.03707960       0.25550732      -0.44610221 </v>
   <v>       0.37168035      -0.03709487       1.02718441 </v>
   <v>       0.09187095       0.48285459      -1.02929671 </v>
   <v>      -0.32680331       0.85736467      -0.84284503 </v>
   <v>       0.23866827       0.30899483       0.87510444 </v>
   <v>       0.56121320      -0.33759405       1.17984220 </v>
   <v>       0.46844012       0.96291727       1.45696701 </v>
   <v>       0.20265639       0.09596547       0.74683483 </v>
   <v>      -0.55567681      -1.40756908      -0.31042126 </v>
   <v>       0.46750563      -0.91609132      -0.96045903 </v>
   <v>      -4.17243612       0.00000000       0.76588242 </v>
   <v>       2.31953020       0.00000000       0.06726476 </v>
   <v>       1.48819070       0.00000000      -1.90270828 </v>
   <v>       1.09851935       0.00000000       0.38582084 </v>
   <v>       1.94862117       0.00000000      -0.76788457 </v>
   <v>       0.63433474       0.00000000       3.77365341 </v>
   <v>       0.13735936       0.00000000      -4.02625843 </v>
   <v>       0.89800833       0.00000000       1.27264322 </v>
   <v>       0.41080336       0.00000000      -4.21505571 </v>
   <v>       1.51114391       0.00000000      -0.13131445 </v>
   <v>      -0.59840641       0.00000000      -1.41775890 </v>
   <v>       0.91578454       0.00000000       2.52963883 </v>
   <v>      -0.09988602       0.38793785      -4.01759101 </v>
   <v>       0.23212564      -0.09004951       2.43317081 </v>
   <v>      -1.64997649       0.89423077      -0.38241208 </v>
   <v>      -0.88351292       0.19829178       1.83574350 </v>
   <v>      -1.91250761       0.93798729      -0.77725850 </v>
   <v>       0.62230060      -0.11841275       2.37073452 </v>
   <v>      -0.32078816       1.81833096       1.45148963 </v>
   <v>      -0.08121375       0.63979031      -3.11857871 </v>
   <v>      -0.77776796      -0.25086236      -3.02252988 </v>
   <v>      -0.41622466       1.97689656      -0.01052681 </v>
   <v>      -1.56678378       0.24572946      -0.73072148 </v>
   <v>      -0.41999002       1.18078907       3.88531799 </v>
   <v>      -1.64997649      -0.89423077      -0.38241208 </v>
   <v>      -0.88351292      -0.19829178       1.83574350 </v>
   <v>      -0.09988602      -0.38793785      -4.01759101 </v>
   <v>       0.23212564       0.09004951       2.43317081 </v>
   <v>      -0.32078816      -1.81833096       1.45148963 </v>
   <v>      -0.08121375      -0.63979031      -3.11857871 </v>
   <v>      -1.91250761      -0.93798729      -0.77725850 </v>
   <v>       0.62230060       0.11841275       2.37073452 </v>
   <v>      -1.56678378      -0.24572946      -0.73072148 </v>
   <v>      -0.41999002      -1.18078907       3.88531799 </v>
   <v>      -0.77776796       0.25086236      -3.02252988 </v>
   <v>      -0.41622466      -1.97689656      -0.01052681 </v>
  </varray>
  <varray name="stress" >
   <v>      78.27272819       0.00000000      -0.56582211 </v>
   <v>       0.00000000      71.68178641       0.00000000 </v>
   <v>      -0.56582216       0.00000000      84.44147982 </v>
  </varray>
  <energy>
   <i name="e_fr_energy">   -336.18479698 </i>
   <i name="e_wo_entrp">   -335.61761021 </i>
   <i name="e_0_energy">     -1.13437354 </i>
  </energy>
  <time name="totalsc">  357.69  357.80</time>
  <eigenvalues>
   <array>
    <dimension dim="1">band</dimension>
    <dimension dim="2">kpoint</dimension>
    <dimension dim="3">spin</dimension>
    <field>eigene</field>
    <field>occ</field>
    <set>
     <set comment="spin 1">
      <set comment="kpoint 1">
       <r>  -65.0414    1.0000 </r>
       <r>  -65.0211    1.0000 </r>
       <r>  -65.0093    1.0000 </r>
       <r>  -64.9886    1.0000 </r>
       <r>  -64.9817    1.0000 </r>
       <r>  -64.9048    1.0000 </r>
       <r>  -64.8918    1.0000 </r>
       <r>  -64.8886    1.0000 </r>
       <r>  -64.8665    1.0000 </r>
       <r>  -64.8538    1.0000 </r>
       <r>  -64.8336    1.0000 </r>
       <r>  -64.8031    1.0000 </r>
       <r>  -64.7947    1.0000 </r>
       <r>  -64.7899    1.0000 </r>
       <r>  -64.7895    1.0000 </r>
       <r>  -64.7814    1.0000 </r>
       <r>  -64.7686    1.0000 </r>
       <r>  -64.7164    1.0000 </r>
       <r>  -64.7035    1.0000 </r>
       <r>  -64.6907    1.0000 </r>
       <r>  -64.6861    1.0000 </r>
       <r>  -64.6699    1.0000 </r>
       <r>  -64.6684    1.0000 </r>
       <r>  -64.6461    1.0000 </r>
       <r>  -64.6207    1.0000 </r>
       <r>  -64.6148    1.0000 </r>
       <r>  -64.6141    1.0000 </r>
       <r>  -64.6113    1.0000 </r>
       <r>  -64.6046    1.0000 </r>
       <r>  -64.5930    1.0000 </r>
       <r>  -64.5910    1.0000 </r>
       <r>  -64.5847    1.0000 </r>
       <r>  -64.5799    1.0000 </r>
       <r>  -64.5736    1.0000 </r>
       <r>  -64.5675    1.0000 </r>
       <r>  -64.5623    1.0000 </r>
       <r>  -64.5415    1.0000 </r>
       <r>  -64.5294    1.0000 </r>
       <r>  -64.5169    1.0000 </r>
       <r>  -64.5088    1.0000 </r>
       <r>  -64.4798    1.0000 </r>
       <r>  -64.4597    1.0000 </r>
       <r>  -64.4465    1.0000 </r>
       <r>  -64.4431    1.0000 </r>
       <r>  -64.4405    1.0000 </r>
       <r>  -64.4400    1.0000 </r>
       <r>  -64.3972    1.0000 </r>
       <r>  -64.3927    1.0000 </r>
       <r>  -64.3263    1.0000 </r>
       <r>  -64.3261    1.0000 </r>
       <r>  -64.3192    1.0000 </r>
       <r>  -64.3172    1.0000 </r>
       <r>  -64.3149    1.0000 </r>
       <r>  -64.3106    1.0000 </r>
       <r>  -64.2817    1.0000 </r>
       <r>  -64.2815    1.0000 </r>
       <r>  -64.2755    1.0000 </r>
       <r>  -64.2726    1.0000 </r>
       <r>  -64.2587    1.0000 </r>
       <r>  -64.2530    1.0000 </r>
       <r>  -64.2503    1.0000 </r>
       <r>  -64.2294    1.0000 </r>
       <r>  -64.2256    1.0000 </r>
       <r>  -64.2252    1.0000 </r>
       <r>  -64.2079    1.0000 </r>
       <r>  -64.2040    1.0000 </r>
       <r>  -64.1967    1.0000 </r>
       <r>  -64.1892    1.0000 </r>
       <r>  -64.1801    1.0000 </r>
       <r>  -64.1766    1.0000 </r>
       <r>  -64.1753    1.0000 </r>
       <r>  -64.1523    1.0000 </r>
       <r>  -64.1495    1.0000 </r>
       <r>  -64.1087    1.0000 </r>
       <r>  -64.0765    1.0000 </r>
       <r>  -64.0664    1.0000 </r>
       <r>  -64.0355    1.0000 </r>
       <r>  -64.0354    1.0000 </r>
       <r>  -64.0202    1.0000 </r>
       <r>  -64.0190    1.0000 </r>
       <r>  -64.0148    1.0000 </r>
       <r>  -63.9759    1.0000 </r>
       <r>  -63.9587    1.0000 </r>
       <r>  -63.9146    1.0000 </r>
       <r>  -63.9042    1.0000 </r>
       <r>  -63.8961    1.0000 </r>
       <r>  -63.8938    1.0000 </r>
       <r>  -63.8912    1.0000 </r>
       <r>  -63.8892    1.0000 </r>
       <r>  -63.8586    1.0000 </r>
       <r>  -63.8568    1.0000 </r>
       <r>  -63.8515    1.0000 </r>
       <r>  -63.8481    1.0000 </r>
       <r>  -63.8412    1.0000 </r>
       <r>  -63.8405    1.0000 </r>
       <r>  -63.8233    1.0000 </r>
       <r>  -63.8173    1.0000 </r>
       <r>  -63.7769    1.0000 </r>
       <r>  -63.5410    1.0000 </r>
       <r>  -63.5398    1.0000 </r>
       <r>  -63.4341    1.0000 </r>
       <r>  -63.4306    1.0000 </r>
       <r>  -63.4239    1.0000 </r>
       <r>  -63.4193    1.0000 </r>
       <r>  -63.2408    1.0000 </r>
       <r>  -63.2275    1.0000 </r>
       <r>  -63.1885    1.0000 </r>
       <r>  -63.1776    1.0000 </r>
       <r>  -16.6561    1.0000 </r>
       <r>  -16.3130    1.0000 </r>
       <r>  -16.1311    1.0000 </r>
       <r>  -15.8071    1.0000 </r>
       <r>  -15.6539    1.0000 </r>
       <r>  -15.5926    1.0000 </r>
       <r>  -15.5070    1.0000 </r>
       <r>  -15.2698    1.0000 </r>
       <r>  -15.2325    1.0000 </r>
       <r>  -15.2075    1.0000 </r>
       <r>  -15.1696    1.0000 </r>
       <r>  -15.0453    1.0000 </r>
       <r>  -14.8978    1.0000 </r>
       <r>  -14.8588    1.0000 </r>
       <r>  -14.8050    1.0000 </r>
       <r>  -14.6461    1.0000 </r>
       <r>  -14.6138    1.0000 </r>
       <r>  -14.5222    1.0000 </r>
       <r>  -14.3520    1.0000 </r>
       <r>  -14.3257    1.0000 </r>
       <r>  -14.3193    1.0000 </r>
       <r>  -14.1281    1.0000 </r>
       <r>  -13.9885    1.0000 </r>
       <r>  -13.8871    1.0000 </r>
       <r>  -13.8761    1.0000 </r>
       <r>  -13.7537    1.0000 </r>
       <r>  -13.4896    1.0000 </r>
       <r>  -13.4887    1.0000 </r>
       <r>  -13.3568    1.0000 </r>
       <r>  -13.3394    1.0000 </r>
       <r>  -13.2298    1.0000 </r>
       <r>  -13.2268    1.0000 </r>
       <r>  -13.1930    1.0000 </r>
       <r>  -13.1126    1.0000 </r>
       <r>  -12.9382    1.0000 </r>
       <r>  -12.7398    1.0000 </r>
       <r>   -8.3208    1.0000 </r>
       <r>   -8.2523    1.0000 </r>
       <r>   -7.9625    1.0000 </r>
       <r>   -7.8560    1.0000 </r>
       <r>   -7.8177    1.0000 </r>
       <r>   -7.7530    1.0000 </r>
       <r>   -7.6953    1.0000 </r>
       <r>   -7.6519    1.0000 </r>
       <r>   -7.5461    1.0000 </r>
       <r>   -7.5238    1.0000 </r>
       <r>   -7.4669    1.0000 </r>
       <r>   -7.3961    1.0000 </r>
       <r>   -7.3782    1.0000 </r>
       <r>   -7.2875    1.0000 </r>
       <r>   -7.2766    1.0000 </r>
       <r>   -7.1815    1.0000 </r>
       <r>   -7.1423    1.0000 </r>
       <r>   -7.1097    1.0000 </r>
       <r>   -7.0616    1.0000 </r>
       <r>   -6.9291    1.0000 </r>
       <r>   -6.8672    1.0000 </r>
       <r>   -6.8476    1.0000 </r>
       <r>   -6.7800    1.0000 </r>
       <r>   -6.7566    1.0000 </r>
       <r>   -6.6706    1.0000 </r>
       <r>   -6.6677    1.0000 </r>
       <r>   -6.6389    1.0000 </r>
       <r>   -6.6023    1.0000 </r>
       <r>   -6.5604    1.0000 </r>
       <r>   -6.5601    1.0000 </r>
       <r>   -6.5155    1.0000 </r>
       <r>   -6.4617    1.0000 </r>
       <r>   -6.4211    1.0000 </r>
       <r>   -6.3489    1.0000 </r>
       <r>   -6.3345    1.0000 </r>
       <r>   -6.2538    1.0000 </r>
       <r>   -6.2141    1.0000 </r>
       <r>   -6.2126    1.0000 </r>
       <r>   -6.1511    1.0000 </r>
       <r>   -6.1389    1.0000 </r>
       <r>   -6.0662    1.0000 </r>
       <r>   -6.0263    1.0000 </r>
       <r>   -6.0241    1.0000 </r>
       <r>   -5.9428    1.0000 </r>
       <r>   -5.9231    1.0000 </r>
       <r>   -5.8882    1.0000 </r>
       <r>   -5.8066    1.0000 </r>
       <r>   -5.7902    1.0000 </r>
       <r>   -5.7515    1.0000 </r>
       <r>   -5.7285    1.0000 </r>
       <r>   -5.7033    1.0000 </r>
       <r>   -5.6700    1.0000 </r>
       <r>   -5.6237    1.0000 </r>
       <r>   -5.5473    1.0000 </r>
       <r>   -5.5245    1.0000 </r>
       <r>   -5.4989    1.0000 </r>
       <r>   -5.4584    1.0000 </r>
       <r>   -5.4486    1.0000 </r>
       <r>   -5.4232    1.0000 </r>
       <r>   -5.3719    1.0000 </r>
       <r>   -5.3656    1.0000 </r>
       <r>   -5.2778    1.0000 </r>
       <r>   -5.2712    1.0000 </r>
       <r>   -5.1936    1.0000 </r>
       <r>   -5.1583    1.0000 </r>
       <r>   -5.1502    1.0000 </r>
       <r>   -5.1267    1.0000 </r>
       <r>   -5.0417    1.0000 </r>
       <r>   -5.0283    1.0000 </r>
       <r>   -5.0011    1.0000 </r>
       <r>   -4.9483    1.0000 </r>
       <r>   -4.9185    1.0000 </r>
       <r>   -4.8661    1.0000 </r>
       <r>   -4.8109    1.0000 </r>
       <r>   -4.7612    1.0000 </r>
       <r>   -4.7554    1.0000 </r>
       <r>   -4.7107    1.0000 </r>
       <r>   -4.7084    1.0000 </r>
       <r>   -4.6118    1.0000 </r>
       <r>   -4.5486    1.0000 </r>
       <r>   -4.5181    1.0000 </r>
       <r>   -4.4473    1.0000 </r>
       <r>   -4.4089    1.0000 </r>
       <r>   -4.4015    1.0000 </r>
       <r>   -4.3698    1.0000 </r>
       <r>   -4.3608    1.0000 </r>
       <r>   -4.2921    1.0000 </r>
       <r>   -4.2446    1.0000 </r>
       <r>   -4.2301    1.0000 </r>
       <r>   -4.1683    1.0000 </r>
       <r>   -4.1510    1.0000 </r>
       <r>   -4.1150    1.0000 </r>
       <r>   -4.0946    1.0000 </r>
       <r>   -4.0829    1.0000 </r>
       <r>   -3.9049    1.0000 </r>
       <r>   -3.8918    1.0000 </r>
       <r>   -3.8141    1.0000 </r>
       <r>   -3.7479    1.0000 </r>
       <r>   -3.7193    1.0000 </r>
       <r>   -3.7023    1.0000 </r>
       <r>   -3.6914    1.0000 </r>
       <r>   -3.6530    1.0000 </r>
       <r>   -3.6179    1.0000 </r>
       <r>   -3.5653    1.0000 </r>
       <r>   -3.5130    1.0000 </r>
       <r>   -3.4949    1.0000 </r>
       <r>   -3.4770    1.0000 </r>
       <r>   -3.3980    1.0000 </r>
       <r>   -3.3853    1.0000 </r>
       <r>   -3.3692    1.0000 </r>
       <r>   -3.3252    1.0000 </r>
       <r>   -3.2662    1.0000 </r>
       <r>   -3.2556    1.0000 </r>
       <r>   -3.2209    1.0000 </r>
       <r>   -3.2008    1.0000 </r>
       <r>   -3.1997    1.0000 </r>
       <r>   -3.1179    1.0000 </r>
       <r>   -3.1110    1.0000 </r>
       <r>   -3.0397    1.0000 </r>
       <r>   -3.0384    1.0000 </r>
       <r>   -3.0082    1.0000 </r>
       <r>   -3.0046    1.0000 </r>
       <r>   -2.9744    1.0000 </r>
       <r>   -2.9523    1.0000 </r>
       <r>   -2.9272    1.0000 </r>
       <r>   -2.9008    1.0000 </r>
       <r>   -2.8942    1.0000 </r>
       <r>   -2.8647    1.0000 </r>
       <r>   -2.8290    1.0000 </r>
       <r>   -2.8031    1.0000 </r>
       <r>   -2.7802    1.0000 </r>
       <r>   -2.7692    1.0000 </r>
       <r>   -2.7538    1.0000 </r>
       <r>   -2.7328    1.0000 </r>
       <r>   -2.7168    1.0000 </r>
       <r>   -2.6915    1.0000 </r>
       <r>   -2.6615    1.0000 </r>
       <r>   -2.6304    1.0000 </r>
       <r>   -2.6052    1.0000 </r>
       <r>   -2.5977    1.0000 </r>
       <r>   -2.5898    1.0000 </r>
       <r>   -2.5793    1.0000 </r>
       <r>   -2.5417    1.0000 </r>
       <r>   -2.5375    1.0000 </r>
       <r>   -2.4901    1.0000 </r>
       <r>   -2.4857    1.0000 </r>
       <r>   -2.4685    1.0000 </r>
       <r>   -2.4597    1.0000 </r>
       <r>   -2.4434    1.0000 </r>
       <r>   -2.4177    1.0000 </r>
       <r>   -2.4008    1.0000 </r>
       <r>   -2.3774    1.0000 </r>
       <r>   -2.3698    1.0000 </r>
       <r>   -2.3523    1.0000 </r>
       <r>   -2.3363    1.0000 </r>
       <r>   -2.3320    1.0000 </r>
       <r>   -2.3298    1.0000 </r>
       <r>   -2.3139    1.0000 </r>
       <r>   -2.2901    1.0000 </r>
       <r>   -2.2798    1.0000 </r>
       <r>   -2.2585    1.0000 </r>
       <r>   -2.2460    1.0000 </r>
       <r>   -2.2365    1.0000 </r>
       <r>   -2.2063    1.0000 </r>
       <r>   -2.1839    1.0000 </r>
       <r>   -2.1719    1.0000 </r>
       <r>   -2.1508    1.0000 </r>
       <r>   -2.1360    1.0000 </r>
       <r>   -2.1323    1.0000 </r>
       <r>   -2.1221    1.0000 </r>
       <r>   -2.1100    1.0000 </r>
       <r>   -2.0887    1.0000 </r>
       <r>   -2.0839    1.0000 </r>
       <r>   -2.0754    1.0000 </r>
       <r>   -2.0577    1.0000 </r>
       <r>   -2.0563    1.0000 </r>
       <r>   -2.0193    1.0000 </r>
       <r>   -2.0130    1.0000 </r>
       <r>   -2.0010    1.0000 </r>
       <r>   -1.9958    1.0000 </r>
       <r>   -1.9700    1.0000 </r>
       <r>   -1.9212    1.0000 </r>
       <r>   -1.9194    1.0000 </r>
       <r>   -1.9049    1.0000 </r>
       <r>   -1.8933    1.0000 </r>
       <r>   -1.8805    1.0000 </r>
       <r>   -1.8617    1.0000 </r>
       <r>   -1.8413    1.0000 </r>
       <r>   -1.8137    1.0000 </r>
       <r>   -1.8101    1.0000 </r>
       <r>   -1.7938    1.0000 </r>
       <r>   -1.7581    1.0000 </r>
       <r>   -1.7494    1.0000 </r>
       <r>   -1.7115    1.0000 </r>
       <r>   -1.7106    1.0000 </r>
       <r>   -1.6862    1.0000 </r>
       <r>   -1.6752    1.0000 </r>
       <r>   -1.6625    1.0000 </r>
       <r>   -1.6215    1.0000 </r>
       <r>   -1.6012    1.0000 </r>
       <r>   -1.5984    1.0000 </r>
       <r>   -1.5641    1.0000 </r>
       <r>   -1.5493    1.0000 </r>
       <r>   -1.5406    1.0000 </r>
       <r>   -1.4913    1.0000 </r>
       <r>   -1.4727    1.0000 </r>
       <r>   -1.4660    1.0000 </r>
       <r>   -1.3967    1.0000 </r>
       <r>   -1.3665    1.0000 </r>
       <r>   -1.3576    1.0000 </r>
       <r>   -1.3479    1.0000 </r>
       <r>   -1.3374    1.0000 </r>
       <r>   -1.3323    1.0000 </r>
       <r>   -1.3098    1.0000 </r>
       <r>   -1.2577    1.0000 </r>
       <r>   -1.2517    1.0000 </r>
       <r>   -1.2056    1.0000 </r>
       <r>   -1.2003    1.0000 </r>
       <r>   -1.1628    1.0000 </r>
       <r>   -1.1413    1.0000 </r>
       <r>   -1.1294    1.0000 </r>
       <r>   -1.1202    1.0000 </r>
       <r>   -1.1193    1.0000 </r>
       <r>   -1.0466    1.0000 </r>
       <r>   -1.0102    1.0000 </r>
       <r>   -0.9940    1.0000 </r>
       <r>   -0.9669    1.0000 </r>
       <r>   -0.9562    1.0000 </r>
       <r>   -0.8680    1.0000 </r>
       <r>   -0.8415    1.0000 </r>
       <r>   -0.8280    1.0000 </r>
       <r>   -0.8079    1.0000 </r>
       <r>   -0.7750    1.0000 </r>
       <r>   -0.7486    1.0000 </r>
       <r>   -0.7308    1.0000 </r>
       <r>   -0.6774    1.0000 </r>
       <r>   -0.6327    0.9999 </r>
       <r>   -0.6100    0.9999 </r>
       <r>   -0.5864    0.9998 </r>
       <r>   -0.5454    0.9994 </r>
       <r>   -0.5098    0.9987 </r>
       <r>   -0.4393    0.9939 </r>
       <r>   -0.3810    0.9818 </r>
       <r>   -0.3600    0.9740 </r>
       <r>   -0.3550    0.9718 </r>
       <r>   -0.3097    0.9439 </r>
       <r>   -0.2921    0.9284 </r>
       <r>   -0.2481    0.8754 </r>
       <r>   -0.1895    0.7698 </r>
       <r>   -0.1655    0.7152 </r>
       <r>   -0.1491    0.6745 </r>
       <r>   -0.1006    0.5437 </r>
       <r>   -0.0992    0.5395 </r>
       <r>   -0.0248    0.3349 </r>
       <r>    0.0133    0.2433 </r>
       <r>    0.0470    0.1751 </r>
       <r>    0.0659    0.1427 </r>
       <r>    0.1118    0.0819 </r>
       <r>    0.1554    0.0445 </r>
       <r>    0.1586    0.0424 </r>
       <r>    0.2116    0.0179 </r>
       <r>    0.2726    0.0057 </r>
       <r>    0.3385    0.0014 </r>
       <r>    0.3827    0.0005 </r>
       <r>    0.4315    0.0001 </r>
       <r>    0.4633    0.0001 </r>
       <r>    0.5107    0.0000 </r>
       <r>    0.5511    0.0000 </r>
       <r>    0.6767    0.0000 </r>
       <r>    0.6944    0.0000 </r>
       <r>    0.7011    0.0000 </r>
       <r>    0.8370    0.0000 </r>
       <r>    0.8577    0.0000 </r>
       <r>    0.9072    0.0000 </r>
       <r>    0.9085    0.0000 </r>
       <r>    0.9483    0.0000 </r>
       <r>    0.9841    0.0000 </r>
       <r>    1.0295    0.0000 </r>
       <r>    1.0419    0.0000 </r>
       <r>    1.0818    0.0000 </r>
       <r>    1.1249    0.0000 </r>
       <r>    1.2191    0.0000 </r>
       <r>    1.3776    0.0000 </r>
       <r>    1.4135    0.0000 </r>
       <r>    1.4459    0.0000 </r>
       <r>    1.4927    0.0000 </r>
       <r>    1.6090    0.0000 </r>
       <r>    1.7078    0.0000 </r>
       <r>    1.7919    0.0000 </r>
       <r>    2.0846    0.0000 </r>
       <r>    2.2868    0.0000 </r>
       <r>    2.3599    0.0000 </r>
       <r>    2.5498    0.0000 </r>
       <r>    2.8188    0.0000 </r>
       <r>    3.0590    0.0000 </r>
       <r>    3.2981    0.0000 </r>
       <r>    3.4235    0.0000 </r>
       <r>    3.6059    0.0000 </r>
       <r>    3.9101    0.0000 </r>
       <r>    4.0439    0.0000 </r>
       <r>    4.0846    0.0000 </r>
       <r>    4.1421    0.0000 </r>
       <r>    4.2359    0.0000 </r>
       <r>    4.2913    0.0000 </r>
       <r>    4.3647    0.0000 </r>
       <r>    4.3989    0.0000 </r>
       <r>    4.4375    0.0000 </r>
       <r>    4.5450    0.0000 </r>
       <r>    4.5617    0.0000 </r>
       <r>    4.6700    0.0000 </r>
       <r>    4.8185    0.0000 </r>
       <r>    4.8261    0.0000 </r>
       <r>    4.8501    0.0000 </r>
       <r>    4.8762    0.0000 </r>
       <r>    4.9567    0.0000 </r>
       <r>    5.0071    0.0000 </r>
       <r>    5.0593    0.0000 </r>
       <r>    5.1153    0.0000 </r>
       <r>    5.1272    0.0000 </r>
       <r>    5.1622    0.0000 </r>
       <r>    5.3100    0.0000 </r>
       <r>    5.3193    0.0000 </r>
       <r>    5.4067    0.0000 </r>
       <r>    5.4456    0.0000 </r>
       <r>    5.5077    0.0000 </r>
       <r>    5.5673    0.0000 </r>
       <r>    5.5674    0.0000 </r>
       <r>    5.5866    0.0000 </r>
       <r>    5.6393    0.0000 </r>
       <r>    5.6533    0.0000 </r>
       <r>    5.7298    0.0000 </r>
       <r>    5.7633    0.0000 </r>
      </set>
     </set>
    </set>
   </array>
  </eigenvalues>
  <separator name="orbital magnetization" >
   <v name="MAGDIPOLOUT">      0.00000000      0.00000000      0.00000000</v>
  </separator>
  <dos>
   <i name="efermi">     -0.08512227 </i>
   <total>
    <array>
     <dimension dim="1">gridpoints</dimension>
     <dimension dim="2">spin</dimension>
     <field>energy</field>
     <field>total</field>
     <field>integrated</field>
     <set>
      <set comment="spin 1">
       <r>   -68.5816     0.0000     0.0000 </r>
       <r>   -68.3220     0.0000     0.0000 </r>
       <r>   -68.0624     0.0000     0.0000 </r>
       <r>   -67.8028     0.0000     0.0000 </r>
       <r>   -67.5432     0.0000     0.0000 </r>
       <r>   -67.2835     0.0000     0.0000 </r>
       <r>   -67.0239     0.0000     0.0000 </r>
       <r>   -66.7643     0.0000     0.0000 </r>
       <r>   -66.5047     0.0000     0.0000 </r>
       <r>   -66.2451     0.0000     0.0000 </r>
       <r>   -65.9855     0.0000     0.0000 </r>
       <r>   -65.7258     0.0000     0.0000 </r>
       <r>   -65.4662     0.0274     0.0071 </r>
       <r>   -65.2066     3.7160     0.9718 </r>
       <r>   -64.9470    44.4208    12.5042 </r>
       <r>   -64.6874   123.2972    44.5143 </r>
       <r>   -64.4278   170.0019    88.6497 </r>
       <r>   -64.1681   174.6818   134.0001 </r>
       <r>   -63.9085   147.9046   172.3987 </r>
       <r>   -63.6489    87.1994   195.0371 </r>
       <r>   -63.3893    38.7084   205.0865 </r>
       <r>   -63.1297    32.4732   213.5171 </r>
       <r>   -62.8701     9.2767   215.9254 </r>
       <r>   -62.6104     0.2867   215.9999 </r>
       <r>   -62.3508     0.0005   216.0000 </r>
       <r>   -62.0912     0.0000   216.0000 </r>
       <r>   -61.8316     0.0000   216.0000 </r>
       <r>   -61.5720     0.0000   216.0000 </r>
       <r>   -61.3124     0.0000   216.0000 </r>
       <r>   -61.0527     0.0000   216.0000 </r>
       <r>   -60.7931     0.0000   216.0000 </r>
       <r>   -60.5335     0.0000   216.0000 </r>
       <r>   -60.2739     0.0000   216.0000 </r>
       <r>   -60.0143     0.0000   216.0000 </r>
       <r>   -59.7546     0.0000   216.0000 </r>
       <r>   -59.4950     0.0000   216.0000 </r>
       <r>   -59.2354     0.0000   216.0000 </r>
       <r>   -58.9758     0.0000   216.0000 </r>
       <r>   -58.7162     0.0000   216.0000 </r>
       <r>   -58.4566     0.0000   216.0000 </r>
       <r>   -58.1969     0.0000   216.0000 </r>
       <r>   -57.9373     0.0000   216.0000 </r>
       <r>   -57.6777     0.0000   216.0000 </r>
       <r>   -57.4181     0.0000   216.0000 </r>
       <r>   -57.1585     0.0000   216.0000 </r>
       <r>   -56.8989     0.0000   216.0000 </r>
       <r>   -56.6392     0.0000   216.0000 </r>
       <r>   -56.3796     0.0000   216.0000 </r>
       <r>   -56.1200     0.0000   216.0000 </r>
       <r>   -55.8604     0.0000   216.0000 </r>
       <r>   -55.6008     0.0000   216.0000 </r>
       <r>   -55.3412     0.0000   216.0000 </r>
       <r>   -55.0815     0.0000   216.0000 </r>
       <r>   -54.8219     0.0000   216.0000 </r>
       <r>   -54.5623     0.0000   216.0000 </r>
       <r>   -54.3027     0.0000   216.0000 </r>
       <r>   -54.0431     0.0000   216.0000 </r>
       <r>   -53.7835     0.0000   216.0000 </r>
       <r>   -53.5238     0.0000   216.0000 </r>
       <r>   -53.2642     0.0000   216.0000 </r>
       <r>   -53.0046     0.0000   216.0000 </r>
       <r>   -52.7450     0.0000   216.0000 </r>
       <r>   -52.4854     0.0000   216.0000 </r>
       <r>   -52.2258     0.0000   216.0000 </r>
       <r>   -51.9661     0.0000   216.0000 </r>
       <r>   -51.7065     0.0000   216.0000 </r>
       <r>   -51.4469     0.0000   216.0000 </r>
       <r>   -51.1873     0.0000   216.0000 </r>
       <r>   -50.9277     0.0000   216.0000 </r>
       <r>   -50.6680     0.0000   216.0000 </r>
       <r>   -50.4084     0.0000   216.0000 </r>
       <r>   -50.1488     0.0000   216.0000 </r>
       <r>   -49.8892     0.0000   216.0000 </r>
       <r>   -49.6296     0.0000   216.0000 </r>
       <r>   -49.3700     0.0000   216.0000 </r>
       <r>   -49.1103     0.0000   216.0000 </r>
       <r>   -48.8507     0.0000   216.0000 </r>
       <r>   -48.5911     0.0000   216.0000 </r>
       <r>   -48.3315     0.0000   216.0000 </r>
       <r>   -48.0719     0.0000   216.0000 </r>
       <r>   -47.8123     0.0000   216.0000 </r>
       <r>   -47.5526     0.0000   216.0000 </r>
       <r>   -47.2930     0.0000   216.0000 </r>
       <r>   -47.0334     0.0000   216.0000 </r>
       <r>   -46.7738     0.0000   216.0000 </r>
       <r>   -46.5142     0.0000   216.0000 </r>
       <r>   -46.2546     0.0000   216.0000 </r>
       <r>   -45.9949     0.0000   216.0000 </r>
       <r>   -45.7353     0.0000   216.0000 </r>
       <r>   -45.4757     0.0000   216.0000 </r>
       <r>   -45.2161     0.0000   216.0000 </r>
       <r>   -44.9565     0.0000   216.0000 </r>
       <r>   -44.6969     0.0000   216.0000 </r>
       <r>   -44.4372     0.0000   216.0000 </r>
       <r>   -44.1776     0.0000   216.0000 </r>
       <r>   -43.9180     0.0000   216.0000 </r>
       <r>   -43.6584     0.0000   216.0000 </r>
       <r>   -43.3988     0.0000   216.0000 </r>
       <r>   -43.1392     0.0000   216.0000 </r>
       <r>   -42.8795     0.0000   216.0000 </r>
       <r>   -42.6199     0.0000   216.0000 </r>
       <r>   -42.3603     0.0000   216.0000 </r>
       <r>   -42.1007     0.0000   216.0000 </r>
       <r>   -41.8411     0.0000   216.0000 </r>
       <r>   -41.5814     0.0000   216.0000 </r>
       <r>   -41.3218     0.0000   216.0000 </r>
       <r>   -41.0622     0.0000   216.0000 </r>
       <r>   -40.8026     0.0000   216.0000 </r>
       <r>   -40.5430     0.0000   216.0000 </r>
       <r>   -40.2834     0.0000   216.0000 </r>
       <r>   -40.0237     0.0000   216.0000 </r>
       <r>   -39.7641     0.0000   216.0000 </r>
       <r>   -39.5045     0.0000   216.0000 </r>
       <r>   -39.2449     0.0000   216.0000 </r>
       <r>   -38.9853     0.0000   216.0000 </r>
       <r>   -38.7257     0.0000   216.0000 </r>
       <r>   -38.4660     0.0000   216.0000 </r>
       <r>   -38.2064     0.0000   216.0000 </r>
       <r>   -37.9468     0.0000   216.0000 </r>
       <r>   -37.6872     0.0000   216.0000 </r>
       <r>   -37.4276     0.0000   216.0000 </r>
       <r>   -37.1680     0.0000   216.0000 </r>
       <r>   -36.9083     0.0000   216.0000 </r>
       <r>   -36.6487     0.0000   216.0000 </r>
       <r>   -36.3891     0.0000   216.0000 </r>
       <r>   -36.1295     0.0000   216.0000 </r>
       <r>   -35.8699     0.0000   216.0000 </r>
       <r>   -35.6103     0.0000   216.0000 </r>
       <r>   -35.3506     0.0000   216.0000 </r>
       <r>   -35.0910     0.0000   216.0000 </r>
       <r>   -34.8314     0.0000   216.0000 </r>
       <r>   -34.5718     0.0000   216.0000 </r>
       <r>   -34.3122     0.0000   216.0000 </r>
       <r>   -34.0526     0.0000   216.0000 </r>
       <r>   -33.7929     0.0000   216.0000 </r>
       <r>   -33.5333     0.0000   216.0000 </r>
       <r>   -33.2737     0.0000   216.0000 </r>
       <r>   -33.0141     0.0000   216.0000 </r>
       <r>   -32.7545     0.0000   216.0000 </r>
       <r>   -32.4949     0.0000   216.0000 </r>
       <r>   -32.2352     0.0000   216.0000 </r>
       <r>   -31.9756     0.0000   216.0000 </r>
       <r>   -31.7160     0.0000   216.0000 </r>
       <r>   -31.4564     0.0000   216.0000 </r>
       <r>   -31.1968     0.0000   216.0000 </r>
       <r>   -30.9371     0.0000   216.0000 </r>
       <r>   -30.6775     0.0000   216.0000 </r>
       <r>   -30.4179     0.0000   216.0000 </r>
       <r>   -30.1583     0.0000   216.0000 </r>
       <r>   -29.8987     0.0000   216.0000 </r>
       <r>   -29.6391     0.0000   216.0000 </r>
       <r>   -29.3794     0.0000   216.0000 </r>
       <r>   -29.1198     0.0000   216.0000 </r>
       <r>   -28.8602     0.0000   216.0000 </r>
       <r>   -28.6006     0.0000   216.0000 </r>
       <r>   -28.3410     0.0000   216.0000 </r>
       <r>   -28.0814     0.0000   216.0000 </r>
       <r>   -27.8217     0.0000   216.0000 </r>
       <r>   -27.5621     0.0000   216.0000 </r>
       <r>   -27.3025     0.0000   216.0000 </r>
       <r>   -27.0429     0.0000   216.0000 </r>
       <r>   -26.7833     0.0000   216.0000 </r>
       <r>   -26.5237     0.0000   216.0000 </r>
       <r>   -26.2640     0.0000   216.0000 </r>
       <r>   -26.0044     0.0000   216.0000 </r>
       <r>   -25.7448     0.0000   216.0000 </r>
       <r>   -25.4852     0.0000   216.0000 </r>
       <r>   -25.2256     0.0000   216.0000 </r>
       <r>   -24.9660     0.0000   216.0000 </r>
       <r>   -24.7063     0.0000   216.0000 </r>
       <r>   -24.4467     0.0000   216.0000 </r>
       <r>   -24.1871     0.0000   216.0000 </r>
       <r>   -23.9275     0.0000   216.0000 </r>
       <r>   -23.6679     0.0000   216.0000 </r>
       <r>   -23.4083     0.0000   216.0000 </r>
       <r>   -23.1486     0.0000   216.0000 </r>
       <r>   -22.8890     0.0000   216.0000 </r>
       <r>   -22.6294     0.0000   216.0000 </r>
       <r>   -22.3698     0.0000   216.0000 </r>
       <r>   -22.1102     0.0000   216.0000 </r>
       <r>   -21.8505     0.0000   216.0000 </r>
       <r>   -21.5909     0.0000   216.0000 </r>
       <r>   -21.3313     0.0000   216.0000 </r>
       <r>   -21.0717     0.0000   216.0000 </r>
       <r>   -20.8121     0.0000   216.0000 </r>
       <r>   -20.5525     0.0000   216.0000 </r>
       <r>   -20.2928     0.0000   216.0000 </r>
       <r>   -20.0332     0.0000   216.0000 </r>
       <r>   -19.7736     0.0000   216.0000 </r>
       <r>   -19.5140     0.0000   216.0000 </r>
       <r>   -19.2544     0.0000   216.0000 </r>
       <r>   -18.9948     0.0000   216.0000 </r>
       <r>   -18.7351     0.0000   216.0000 </r>
       <r>   -18.4755     0.0000   216.0000 </r>
       <r>   -18.2159     0.0000   216.0000 </r>
       <r>   -17.9563     0.0000   216.0000 </r>
       <r>   -17.6967     0.0000   216.0000 </r>
       <r>   -17.4371     0.0000   216.0000 </r>
       <r>   -17.1774     0.0009   216.0002 </r>
       <r>   -16.9178     0.2467   216.0643 </r>
       <r>   -16.6582     3.6164   217.0031 </r>
       <r>   -16.3986     5.9014   218.5352 </r>
       <r>   -16.1390     8.5560   220.7565 </r>
       <r>   -15.8794     7.4638   222.6942 </r>
       <r>   -15.6197    13.9018   226.3034 </r>
       <r>   -15.3601    17.8492   230.9373 </r>
       <r>   -15.1005    24.5587   237.3132 </r>
       <r>   -14.8409    23.1721   243.3291 </r>
       <r>   -14.5813    22.8570   249.2631 </r>
       <r>   -14.3217    22.6970   255.1557 </r>
       <r>   -14.0620    19.5214   260.2238 </r>
       <r>   -13.8024    20.0336   265.4248 </r>
       <r>   -13.5428    16.2556   269.6451 </r>
       <r>   -13.2832    26.7003   276.5769 </r>
       <r>   -13.0236    26.6255   283.4894 </r>
       <r>   -12.7639    12.0903   286.6282 </r>
       <r>   -12.5043     4.9062   287.9019 </r>
       <r>   -12.2447     0.3760   287.9995 </r>
       <r>   -11.9851     0.0018   288.0000 </r>
       <r>   -11.7255     0.0000   288.0000 </r>
       <r>   -11.4659     0.0000   288.0000 </r>
       <r>   -11.2062     0.0000   288.0000 </r>
       <r>   -10.9466     0.0000   288.0000 </r>
       <r>   -10.6870     0.0000   288.0000 </r>
       <r>   -10.4274     0.0000   288.0000 </r>
       <r>   -10.1678     0.0000   288.0000 </r>
       <r>    -9.9082     0.0000   288.0000 </r>
       <r>    -9.6485     0.0000   288.0000 </r>
       <r>    -9.3889     0.0000   288.0000 </r>
       <r>    -9.1293     0.0000   288.0000 </r>
       <r>    -8.8697     0.0004   288.0001 </r>
       <r>    -8.6101     0.2008   288.0523 </r>
       <r>    -8.3505     4.9163   289.3286 </r>
       <r>    -8.0908    10.9872   292.1811 </r>
       <r>    -7.8312    18.2324   296.9145 </r>
       <r>    -7.5716    32.0891   305.2454 </r>
       <r>    -7.3120    36.6805   314.7683 </r>
       <r>    -7.0524    35.7985   324.0622 </r>
       <r>    -6.7928    36.3219   333.4920 </r>
       <r>    -6.5331    50.9220   346.7122 </r>
       <r>    -6.2735    48.6652   359.3465 </r>
       <r>    -6.0139    49.4236   372.1777 </r>
       <r>    -5.7543    51.1721   385.4629 </r>
       <r>    -5.4947    55.0057   399.7433 </r>
       <r>    -5.2351    55.0120   414.0253 </r>
       <r>    -4.9754    51.8843   427.4954 </r>
       <r>    -4.7158    49.1889   440.2657 </r>
       <r>    -4.4562    46.5479   452.3503 </r>
       <r>    -4.1966    53.4090   466.2162 </r>
       <r>    -3.9370    43.1891   477.4288 </r>
       <r>    -3.6774    44.4017   488.9563 </r>
       <r>    -3.4177    56.1093   503.5232 </r>
       <r>    -3.1581    62.6758   519.7949 </r>
       <r>    -2.8985    77.2736   539.8565 </r>
       <r>    -2.6389    93.2377   564.0626 </r>
       <r>    -2.3793   112.6357   593.3047 </r>
       <r>    -2.1196   131.3578   627.4074 </r>
       <r>    -1.8600   125.2801   659.9323 </r>
       <r>    -1.6004   104.4312   687.0444 </r>
       <r>    -1.3408    89.2840   710.2241 </r>
       <r>    -1.0812    83.7531   731.9678 </r>
       <r>    -0.8216    68.2545   749.6878 </r>
       <r>    -0.5619    60.0060   765.2664 </r>
       <r>    -0.3023    54.7955   779.4923 </r>
       <r>    -0.0427    57.3913   794.3920 </r>
       <r>     0.2169    52.4053   807.9973 </r>
       <r>     0.4765    42.5165   819.0353 </r>
       <r>     0.7361    38.2505   828.9658 </r>
       <r>     0.9958    46.9649   841.1587 </r>
       <r>     1.2554    38.6789   851.2004 </r>
       <r>     1.5150    27.6531   858.3796 </r>
       <r>     1.7746    21.5378   863.9712 </r>
       <r>     2.0342    10.5372   866.7068 </r>
       <r>     2.2938    11.1881   869.6115 </r>
       <r>     2.5535    12.4765   872.8506 </r>
       <r>     2.8131     8.2259   874.9862 </r>
       <r>     3.0727     8.2512   877.1283 </r>
       <r>     3.3323     9.9427   879.7096 </r>
       <r>     3.5919    11.4269   882.6762 </r>
       <r>     3.8515     8.6261   884.9157 </r>
       <r>     4.1112    19.2223   889.9061 </r>
       <r>     4.3708    30.6437   897.8618 </r>
       <r>     4.6304    30.7073   905.8339 </r>
       <r>     4.8900    33.0701   914.4195 </r>
       <r>     5.1496    39.6827   924.7218 </r>
       <r>     5.4092    35.9994   934.0679 </r>
       <r>     5.6689    43.8817   945.4603 </r>
       <r>     5.9285    23.1252   951.4640 </r>
       <r>     6.1881     2.0486   951.9958 </r>
       <r>     6.4477     0.0160   952.0000 </r>
       <r>     6.7073     0.0000   952.0000 </r>
       <r>     6.9670     0.0000   952.0000 </r>
       <r>     7.2266     0.0000   952.0000 </r>
       <r>     7.4862     0.0000   952.0000 </r>
       <r>     7.7458     0.0000   952.0000 </r>
       <r>     8.0054     0.0000   952.0000 </r>
       <r>     8.2650     0.0000   952.0000 </r>
       <r>     8.5247     0.0000   952.0000 </r>
       <r>     8.7843     0.0000   952.0000 </r>
       <r>     9.0439     0.0000   952.0000 </r>
       <r>     9.3035     0.0000   952.0000 </r>
      </set>
     </set>
    </array>
   </total>
  </dos>
 </calculation>
 <structure name="finalpos" >
  <crystal>
   <varray name="basis" >
    <v>      16.88469405       0.00000000       0.00000000 </v>
    <v>       0.00000000       9.57841000       0.00000000 </v>
    <v>       0.00000000       0.00000000      16.16908712 </v>
   </varray>
   <i name="volume">   2615.00256803 </i>
   <varray name="rec_basis" >
    <v>       0.05922524       0.00000000       0.00000000 </v>
    <v>       0.00000000       0.10440146       0.00000000 </v>
    <v>       0.00000000       0.00000000       0.06184641 </v>
   </varray>
  </crystal>
  <varray name="positions" >
   <v>       0.78004631       0.14529695       0.12058499 </v>
   <v>       0.72232316       0.14529695       0.24972186 </v>
   <v>       0.22517816       0.64529695       0.09307363 </v>
   <v>       0.29733029       0.64529695       0.21596896 </v>
   <v>       0.39449420       0.14529695       0.12497037 </v>
   <v>       0.46975828       0.14529695       0.24776362 </v>
   <v>       0.95247430       0.64529695       0.15237965 </v>
   <v>       0.97638468       0.64529695       0.29792791 </v>
   <v>       0.12490229       0.14529695       0.18417431 </v>
   <v>       0.14584651       0.14529695       0.34699912 </v>
   <v>       0.57045290       0.64529695       0.15995263 </v>
   <v>       0.64218627       0.64529695       0.27955828 </v>
   <v>       0.90006429       0.92675993       0.13747849 </v>
   <v>       0.39429237       0.51712258       0.03437372 </v>
   <v>       0.42486676       0.51319395       0.19076795 </v>
   <v>       0.44684520       0.50088789       0.34472920 </v>
   <v>       0.56619148       0.01711990       0.06534610 </v>
   <v>       0.59729475       0.01319395       0.22256260 </v>
   <v>       0.08001077       0.51319395       0.12717863 </v>
   <v>       0.09962015       0.49354084       0.27635914 </v>
   <v>       0.25243876       0.01319395       0.15897329 </v>
   <v>       0.28564201       0.00177615       0.32234289 </v>
   <v>       0.76080664       0.43495882       0.11608528 </v>
   <v>       0.76972274       0.51319395       0.25435726 </v>
   <v>       0.90006429       0.36383398       0.13747849 </v>
   <v>       0.39429237       0.77347133       0.03437372 </v>
   <v>       0.42486676       0.77739995       0.19076795 </v>
   <v>       0.44684520       0.78970602       0.34472920 </v>
   <v>       0.56619148       0.27347401       0.06534610 </v>
   <v>       0.59729475       0.27739995       0.22256260 </v>
   <v>       0.08001077       0.77739995       0.12717863 </v>
   <v>       0.09962015       0.79705307       0.27635914 </v>
   <v>       0.25243876       0.27739995       0.15897329 </v>
   <v>       0.28564201       0.28881776       0.32234289 </v>
   <v>       0.76080664       0.85563509       0.11608528 </v>
   <v>       0.76972274       0.77739995       0.25435726 </v>
   <v>       0.04533595       0.14529695       0.27926328 </v>
   <v>       0.91139191       0.14529695       0.13598872 </v>
   <v>       0.47417723       0.64529695       0.08702573 </v>
   <v>       0.50874518       0.64529695       0.27779368 </v>
   <v>       0.64660522       0.14529695       0.11882039 </v>
   <v>       0.62598092       0.14529695       0.32120734 </v>
   <v>       0.11995015       0.64529695       0.03443310 </v>
   <v>       0.16388920       0.64529695       0.21420436 </v>
   <v>       0.28830832       0.14529695       0.06614442 </v>
   <v>       0.33631719       0.14529695       0.24599902 </v>
   <v>       0.81903321       0.64529695       0.15061505 </v>
   <v>       0.85438050       0.64529695       0.31225509 </v>
   <v>       0.82211646       0.30576684       0.04195966 </v>
   <v>       0.80132993       0.30845767       0.21633563 </v>
   <v>       0.31177708       0.81351195       0.11911576 </v>
   <v>       0.33881413       0.81120174       0.29123347 </v>
   <v>       0.48420507       0.31351195       0.15091042 </v>
   <v>       0.50608890       0.32239765       0.31437170 </v>
   <v>       0.98849236       0.82465803       0.22438349 </v>
   <v>       0.97212408       0.80236746       0.06379155 </v>
   <v>       0.13990038       0.32198986       0.11099746 </v>
   <v>       0.17391704       0.31351195       0.27808905 </v>
   <v>       0.65663306       0.81351195       0.18270508 </v>
   <v>       0.69613338       0.78887769       0.35264967 </v>
   <v>       0.31177708       0.47708195       0.11911576 </v>
   <v>       0.33881413       0.47939217       0.29123347 </v>
   <v>       0.82211646       0.98482706       0.04195966 </v>
   <v>       0.80132993       0.98213624       0.21633563 </v>
   <v>       0.98849236       0.46593588       0.22438349 </v>
   <v>       0.97212408       0.48822645       0.06379155 </v>
   <v>       0.48420507       0.97708195       0.15091042 </v>
   <v>       0.50608890       0.96819626       0.31437170 </v>
   <v>       0.65663306       0.47708195       0.18270508 </v>
   <v>       0.69613338       0.50171622       0.35264967 </v>
   <v>       0.13990038       0.96860405       0.11099746 </v>
   <v>       0.17391704       0.97708195       0.27808905 </v>
  </varray>
 </structure>
</modeling>
