  72  72   0   0
  0.2729146E+02  0.1007973E-08  0.1007973E-08  0.2068350E-08  0.5000000E-15
  1.000000000000000E-004
  CAR 
 "Millerite NiS"                         
     11.13210165    -66.78867545  301      1.47774763      1.00000000
    -66.789  0.0000E+00  0.0000E+00
    -66.529  0.0000E+00  0.0000E+00
    -66.269  0.0000E+00  0.0000E+00
    -66.009  0.0000E+00  0.0000E+00
    -65.750  0.0000E+00  0.0000E+00
    -65.490  0.0000E+00  0.0000E+00
    -65.230  0.0000E+00  0.0000E+00
    -64.971  0.0000E+00  0.0000E+00
    -64.711  0.0000E+00  0.0000E+00
    -64.451  0.0000E+00  0.0000E+00
    -64.191  0.1035E-09  0.2688E-10
    -63.932  0.6226E-05  0.1617E-05
    -63.672  0.1670E-01  0.4339E-02
    -63.412  0.2679E+01  0.7002E+00
    -63.152  0.4665E+02  0.1282E+02
    -62.893  0.1728E+03  0.5771E+02
    -62.633  0.2710E+03  0.1281E+03
    -62.373  0.2247E+03  0.1865E+03
    -62.113  0.7403E+02  0.2057E+03
    -61.854  0.2410E+02  0.2119E+03
    -61.594  0.1335E+02  0.2154E+03
    -61.334  0.2220E+01  0.2160E+03
    -61.074  0.3460E-01  0.2160E+03
    -60.815  0.2853E-04  0.2160E+03
    -60.555  0.9768E-09  0.2160E+03
    -60.295  0.1710E-14  0.2160E+03
    -60.036  0.0000E+00  0.2160E+03
    -59.776  0.0000E+00  0.2160E+03
    -59.516  0.0000E+00  0.2160E+03
    -59.256  0.0000E+00  0.2160E+03
    -58.997  0.0000E+00  0.2160E+03
    -58.737  0.0000E+00  0.2160E+03
    -58.477  0.0000E+00  0.2160E+03
    -58.217  0.0000E+00  0.2160E+03
    -57.958  0.0000E+00  0.2160E+03
    -57.698  0.0000E+00  0.2160E+03
    -57.438  0.0000E+00  0.2160E+03
    -57.178  0.0000E+00  0.2160E+03
    -56.919  0.0000E+00  0.2160E+03
    -56.659  0.0000E+00  0.2160E+03
    -56.399  0.0000E+00  0.2160E+03
    -56.140  0.0000E+00  0.2160E+03
    -55.880  0.0000E+00  0.2160E+03
    -55.620  0.0000E+00  0.2160E+03
    -55.360  0.0000E+00  0.2160E+03
    -55.101  0.0000E+00  0.2160E+03
    -54.841  0.0000E+00  0.2160E+03
    -54.581  0.0000E+00  0.2160E+03
    -54.321  0.0000E+00  0.2160E+03
    -54.062  0.0000E+00  0.2160E+03
    -53.802  0.0000E+00  0.2160E+03
    -53.542  0.0000E+00  0.2160E+03
    -53.282  0.0000E+00  0.2160E+03
    -53.023  0.0000E+00  0.2160E+03
    -52.763  0.0000E+00  0.2160E+03
    -52.503  0.0000E+00  0.2160E+03
    -52.243  0.0000E+00  0.2160E+03
    -51.984  0.0000E+00  0.2160E+03
    -51.724  0.0000E+00  0.2160E+03
    -51.464  0.0000E+00  0.2160E+03
    -51.205  0.0000E+00  0.2160E+03
    -50.945  0.0000E+00  0.2160E+03
    -50.685  0.0000E+00  0.2160E+03
    -50.425  0.0000E+00  0.2160E+03
    -50.166  0.0000E+00  0.2160E+03
    -49.906  0.0000E+00  0.2160E+03
    -49.646  0.0000E+00  0.2160E+03
    -49.386  0.0000E+00  0.2160E+03
    -49.127  0.0000E+00  0.2160E+03
    -48.867  0.0000E+00  0.2160E+03
    -48.607  0.0000E+00  0.2160E+03
    -48.347  0.0000E+00  0.2160E+03
    -48.088  0.0000E+00  0.2160E+03
    -47.828  0.0000E+00  0.2160E+03
    -47.568  0.0000E+00  0.2160E+03
    -47.308  0.0000E+00  0.2160E+03
    -47.049  0.0000E+00  0.2160E+03
    -46.789  0.0000E+00  0.2160E+03
    -46.529  0.0000E+00  0.2160E+03
    -46.270  0.0000E+00  0.2160E+03
    -46.010  0.0000E+00  0.2160E+03
    -45.750  0.0000E+00  0.2160E+03
    -45.490  0.0000E+00  0.2160E+03
    -45.231  0.0000E+00  0.2160E+03
    -44.971  0.0000E+00  0.2160E+03
    -44.711  0.0000E+00  0.2160E+03
    -44.451  0.0000E+00  0.2160E+03
    -44.192  0.0000E+00  0.2160E+03
    -43.932  0.0000E+00  0.2160E+03
    -43.672  0.0000E+00  0.2160E+03
    -43.412  0.0000E+00  0.2160E+03
    -43.153  0.0000E+00  0.2160E+03
    -42.893  0.0000E+00  0.2160E+03
    -42.633  0.0000E+00  0.2160E+03
    -42.373  0.0000E+00  0.2160E+03
    -42.114  0.0000E+00  0.2160E+03
    -41.854  0.0000E+00  0.2160E+03
    -41.594  0.0000E+00  0.2160E+03
    -41.335  0.0000E+00  0.2160E+03
    -41.075  0.0000E+00  0.2160E+03
    -40.815  0.0000E+00  0.2160E+03
    -40.555  0.0000E+00  0.2160E+03
    -40.296  0.0000E+00  0.2160E+03
    -40.036  0.0000E+00  0.2160E+03
    -39.776  0.0000E+00  0.2160E+03
    -39.516  0.0000E+00  0.2160E+03
    -39.257  0.0000E+00  0.2160E+03
    -38.997  0.0000E+00  0.2160E+03
    -38.737  0.0000E+00  0.2160E+03
    -38.477  0.0000E+00  0.2160E+03
    -38.218  0.0000E+00  0.2160E+03
    -37.958  0.0000E+00  0.2160E+03
    -37.698  0.0000E+00  0.2160E+03
    -37.439  0.0000E+00  0.2160E+03
    -37.179  0.0000E+00  0.2160E+03
    -36.919  0.0000E+00  0.2160E+03
    -36.659  0.0000E+00  0.2160E+03
    -36.400  0.0000E+00  0.2160E+03
    -36.140  0.0000E+00  0.2160E+03
    -35.880  0.0000E+00  0.2160E+03
    -35.620  0.0000E+00  0.2160E+03
    -35.361  0.0000E+00  0.2160E+03
    -35.101  0.0000E+00  0.2160E+03
    -34.841  0.0000E+00  0.2160E+03
    -34.581  0.0000E+00  0.2160E+03
    -34.322  0.0000E+00  0.2160E+03
    -34.062  0.0000E+00  0.2160E+03
    -33.802  0.0000E+00  0.2160E+03
    -33.542  0.0000E+00  0.2160E+03
    -33.283  0.0000E+00  0.2160E+03
    -33.023  0.0000E+00  0.2160E+03
    -32.763  0.0000E+00  0.2160E+03
    -32.504  0.0000E+00  0.2160E+03
    -32.244  0.0000E+00  0.2160E+03
    -31.984  0.0000E+00  0.2160E+03
    -31.724  0.0000E+00  0.2160E+03
    -31.465  0.0000E+00  0.2160E+03
    -31.205  0.0000E+00  0.2160E+03
    -30.945  0.0000E+00  0.2160E+03
    -30.685  0.0000E+00  0.2160E+03
    -30.426  0.0000E+00  0.2160E+03
    -30.166  0.0000E+00  0.2160E+03
    -29.906  0.0000E+00  0.2160E+03
    -29.646  0.0000E+00  0.2160E+03
    -29.387  0.0000E+00  0.2160E+03
    -29.127  0.0000E+00  0.2160E+03
    -28.867  0.0000E+00  0.2160E+03
    -28.607  0.0000E+00  0.2160E+03
    -28.348  0.0000E+00  0.2160E+03
    -28.088  0.0000E+00  0.2160E+03
    -27.828  0.0000E+00  0.2160E+03
    -27.569  0.0000E+00  0.2160E+03
    -27.309  0.0000E+00  0.2160E+03
    -27.049  0.0000E+00  0.2160E+03
    -26.789  0.0000E+00  0.2160E+03
    -26.530  0.0000E+00  0.2160E+03
    -26.270  0.0000E+00  0.2160E+03
    -26.010  0.0000E+00  0.2160E+03
    -25.750  0.0000E+00  0.2160E+03
    -25.491  0.0000E+00  0.2160E+03
    -25.231  0.0000E+00  0.2160E+03
    -24.971  0.0000E+00  0.2160E+03
    -24.711  0.0000E+00  0.2160E+03
    -24.452  0.0000E+00  0.2160E+03
    -24.192  0.0000E+00  0.2160E+03
    -23.932  0.0000E+00  0.2160E+03
    -23.673  0.0000E+00  0.2160E+03
    -23.413  0.0000E+00  0.2160E+03
    -23.153  0.0000E+00  0.2160E+03
    -22.893  0.0000E+00  0.2160E+03
    -22.634  0.0000E+00  0.2160E+03
    -22.374  0.0000E+00  0.2160E+03
    -22.114  0.0000E+00  0.2160E+03
    -21.854  0.0000E+00  0.2160E+03
    -21.595  0.0000E+00  0.2160E+03
    -21.335  0.0000E+00  0.2160E+03
    -21.075  0.0000E+00  0.2160E+03
    -20.815  0.0000E+00  0.2160E+03
    -20.556  0.0000E+00  0.2160E+03
    -20.296  0.0000E+00  0.2160E+03
    -20.036  0.0000E+00  0.2160E+03
    -19.776  0.0000E+00  0.2160E+03
    -19.517  0.0000E+00  0.2160E+03
    -19.257  0.0000E+00  0.2160E+03
    -18.997  0.0000E+00  0.2160E+03
    -18.738  0.0000E+00  0.2160E+03
    -18.478  0.0000E+00  0.2160E+03
    -18.218  0.0000E+00  0.2160E+03
    -17.958  0.0000E+00  0.2160E+03
    -17.699  0.0000E+00  0.2160E+03
    -17.439  0.0000E+00  0.2160E+03
    -17.179  0.0000E+00  0.2160E+03
    -16.919  0.0000E+00  0.2160E+03
    -16.660  0.0000E+00  0.2160E+03
    -16.400  0.0000E+00  0.2160E+03
    -16.140  0.0000E+00  0.2160E+03
    -15.880  0.6899E-12  0.2160E+03
    -15.621  0.1255E-06  0.2160E+03
    -15.361  0.8625E-03  0.2160E+03
    -15.101  0.2448E+00  0.2161E+03
    -14.841  0.3575E+01  0.2170E+03
    -14.582  0.5041E+01  0.2183E+03
    -14.322  0.6999E+01  0.2201E+03
    -14.062  0.9435E+01  0.2226E+03
    -13.803  0.1422E+02  0.2263E+03
    -13.543  0.1686E+02  0.2306E+03
    -13.283  0.2346E+02  0.2367E+03
    -13.023  0.2565E+02  0.2434E+03
    -12.764  0.2623E+02  0.2502E+03
    -12.504  0.2704E+02  0.2572E+03
    -12.244  0.2894E+02  0.2648E+03
    -11.984  0.3151E+02  0.2729E+03
    -11.725  0.2671E+02  0.2799E+03
    -11.465  0.1916E+02  0.2849E+03
    -11.205  0.9874E+01  0.2874E+03
    -10.945  0.2197E+01  0.2880E+03
    -10.686  0.4856E-01  0.2880E+03
    -10.426  0.5520E-04  0.2880E+03
    -10.166  0.2532E-08  0.2880E+03
     -9.907  0.4274E-14  0.2880E+03
     -9.647  0.0000E+00  0.2880E+03
     -9.387  0.0000E+00  0.2880E+03
     -9.127  0.0000E+00  0.2880E+03
     -8.868  0.0000E+00  0.2880E+03
     -8.608  0.0000E+00  0.2880E+03
     -8.348  0.0000E+00  0.2880E+03
     -8.088  0.0000E+00  0.2880E+03
     -7.829  0.0000E+00  0.2880E+03
     -7.569  0.4685E-12  0.2880E+03
     -7.309  0.9529E-07  0.2880E+03
     -7.049  0.7540E-03  0.2880E+03
     -6.790  0.2677E+00  0.2881E+03
     -6.530  0.5959E+01  0.2896E+03
     -6.270  0.1596E+02  0.2938E+03
     -6.010  0.2122E+02  0.2993E+03
     -5.751  0.3333E+02  0.3079E+03
     -5.491  0.4214E+02  0.3189E+03
     -5.231  0.5313E+02  0.3327E+03
     -4.972  0.4236E+02  0.3437E+03
     -4.712  0.3652E+02  0.3532E+03
     -4.452  0.3624E+02  0.3626E+03
     -4.192  0.4405E+02  0.3740E+03
     -3.933  0.4791E+02  0.3865E+03
     -3.673  0.5628E+02  0.4011E+03
     -3.413  0.6917E+02  0.4190E+03
     -3.153  0.7384E+02  0.4382E+03
     -2.894  0.6449E+02  0.4550E+03
     -2.634  0.6017E+02  0.4706E+03
     -2.374  0.4270E+02  0.4817E+03
     -2.114  0.3435E+02  0.4906E+03
     -1.855  0.5022E+02  0.5037E+03
     -1.595  0.6026E+02  0.5193E+03
     -1.335  0.7300E+02  0.5383E+03
     -1.075  0.9425E+02  0.5628E+03
     -0.816  0.1086E+03  0.5910E+03
     -0.556  0.1245E+03  0.6233E+03
     -0.296  0.1349E+03  0.6584E+03
     -0.037  0.1328E+03  0.6929E+03
      0.223  0.1034E+03  0.7197E+03
      0.483  0.7679E+02  0.7397E+03
      0.743  0.6184E+02  0.7557E+03
      1.002  0.5188E+02  0.7692E+03
      1.262  0.4842E+02  0.7818E+03
      1.522  0.4799E+02  0.7942E+03
      1.782  0.5060E+02  0.8074E+03
      2.041  0.5025E+02  0.8204E+03
      2.301  0.5383E+02  0.8344E+03
      2.561  0.4744E+02  0.8467E+03
      2.821  0.3522E+02  0.8559E+03
      3.080  0.2241E+02  0.8617E+03
      3.340  0.8409E+01  0.8639E+03
      3.600  0.6527E+00  0.8640E+03
      3.859  0.3240E+01  0.8649E+03
      4.119  0.3985E+01  0.8659E+03
      4.379  0.3218E+01  0.8668E+03
      4.639  0.1236E+02  0.8700E+03
      4.898  0.1307E+02  0.8734E+03
      5.158  0.1172E+02  0.8764E+03
      5.418  0.1601E+02  0.8806E+03
      5.678  0.2240E+02  0.8864E+03
      5.937  0.2525E+02  0.8929E+03
      6.197  0.2732E+02  0.9000E+03
      6.457  0.3235E+02  0.9084E+03
      6.717  0.3201E+02  0.9168E+03
      6.976  0.3545E+02  0.9260E+03
      7.236  0.3654E+02  0.9355E+03
      7.496  0.4159E+02  0.9463E+03
      7.756  0.2038E+02  0.9516E+03
      8.015  0.1713E+01  0.9520E+03
      8.275  0.1294E-01  0.9520E+03
      8.535  0.5393E-05  0.9520E+03
      8.794  0.9576E-10  0.9520E+03
      9.054  0.0000E+00  0.9520E+03
      9.314  0.0000E+00  0.9520E+03
      9.574  0.0000E+00  0.9520E+03
      9.833  0.0000E+00  0.9520E+03
     10.093  0.0000E+00  0.9520E+03
     10.353  0.0000E+00  0.9520E+03
     10.613  0.0000E+00  0.9520E+03
     10.872  0.0000E+00  0.9520E+03
     11.132  0.0000E+00  0.9520E+03
