       N       E                     dE             d eps       ncg     rms          rms(c)
DAV:   1     0.882979568830E+04    0.88298E+04   -0.51416E+05  1200   0.153E+03
DAV:   2     0.502014834147E+03   -0.83278E+04   -0.80497E+04  1032   0.484E+02
DAV:   3    -0.355266634130E+03   -0.85728E+03   -0.81009E+03  1168   0.157E+02
DAV:   4    -0.405654938491E+03   -0.50388E+02   -0.49686E+02  1160   0.349E+01
DAV:   5    -0.407352576449E+03   -0.16976E+01   -0.16954E+01  1224   0.679E+00    0.828E+01
DAV:   6    -0.528239392623E+03   -0.12089E+03   -0.11155E+03  1168   0.128E+02    0.182E+02
DAV:   7    -0.386634412421E+03    0.14160E+03   -0.20124E+02  1136   0.599E+01    0.780E+01
DAV:   8    -0.404946459352E+03   -0.18312E+02   -0.19518E+02  1376   0.870E+01    0.100E+02
DAV:   9    -0.381753387234E+03    0.23193E+02   -0.13403E+02  1304   0.573E+01    0.783E+01
DAV:  10    -0.361905640591E+03    0.19848E+02   -0.58110E+01  1384   0.413E+01    0.559E+01
DAV:  11    -0.369455571057E+03   -0.75499E+01   -0.52871E+01  1344   0.376E+01    0.818E+01
DAV:  12    -0.368084421146E+03    0.13711E+01   -0.47432E+01  1336   0.260E+01    0.682E+01
DAV:  13    -0.362847923594E+03    0.52365E+01   -0.59260E+01  1336   0.201E+01    0.334E+01
DAV:  14    -0.358275460430E+03    0.45725E+01   -0.12599E+01  1272   0.231E+01    0.373E+01
DAV:  15    -0.356960050773E+03    0.13154E+01   -0.13576E+01  1344   0.177E+01    0.308E+01
DAV:  16    -0.353932508890E+03    0.30275E+01   -0.63630E+00  1312   0.136E+01    0.214E+01
DAV:  17    -0.352359986545E+03    0.15725E+01   -0.25534E+00  1288   0.103E+01    0.151E+01
DAV:  18    -0.352162165536E+03    0.19782E+00   -0.22503E+00  1320   0.862E+00    0.125E+01
DAV:  19    -0.351688439142E+03    0.47373E+00   -0.15068E+00  1288   0.714E+00    0.784E+00
DAV:  20    -0.351691066326E+03   -0.26272E-02   -0.92076E-01  1296   0.511E+00    0.778E+00
DAV:  21    -0.351673834776E+03    0.17232E-01   -0.51994E-01  1248   0.431E+00    0.773E+00
DAV:  22    -0.351713265665E+03   -0.39431E-01   -0.75411E-01  1280   0.451E+00    0.842E+00
DAV:  23    -0.351574303215E+03    0.13896E+00   -0.32473E-01  1280   0.264E+00    0.473E+00
DAV:  24    -0.351726172599E+03   -0.15187E+00   -0.38586E-01  1360   0.341E+00    0.116E+01
DAV:  25    -0.351559667151E+03    0.16651E+00   -0.35691E-01  1312   0.208E+00    0.466E+00
DAV:  26    -0.351542505655E+03    0.17161E-01   -0.10363E-01  1304   0.195E+00    0.454E+00
DAV:  27    -0.351516364557E+03    0.26141E-01   -0.34034E-02  1328   0.843E-01    0.326E+00
DAV:  28    -0.351521577254E+03   -0.52127E-02   -0.30136E-02  1328   0.116E+00    0.388E+00
DAV:  29    -0.351505392214E+03    0.16185E-01   -0.15521E-02  1336   0.677E-01    0.300E+00
DAV:  30    -0.351503140221E+03    0.22520E-02   -0.13358E-02  1280   0.832E-01    0.283E+00
DAV:  31    -0.351491714669E+03    0.11426E-01   -0.99464E-03  1368   0.537E-01    0.188E+00
DAV:  32    -0.351486261173E+03    0.54535E-02   -0.59312E-03  1280   0.501E-01    0.117E+00
DAV:  33    -0.351484078084E+03    0.21831E-02   -0.35514E-03  1280   0.318E-01    0.641E-01
DAV:  34    -0.351483857987E+03    0.22010E-03   -0.15651E-03  1176   0.242E-01    0.426E-01
DAV:  35    -0.351484179263E+03   -0.32128E-03   -0.86145E-04  1000   0.166E-01    0.299E-01
DAV:  36    -0.351484380617E+03   -0.20135E-03   -0.56142E-04   888   0.182E-01    0.220E-01
DAV:  37    -0.351485092552E+03   -0.71194E-03   -0.59857E-04   872   0.145E-01    0.220E-01
DAV:  38    -0.351485338748E+03   -0.24620E-03   -0.33401E-04   824   0.129E-01    0.162E-01
DAV:  39    -0.351486298775E+03   -0.96003E-03   -0.22313E-04   688   0.987E-02    0.284E-01
DAV:  40    -0.351486477625E+03   -0.17885E-03   -0.15612E-04   616   0.889E-02    0.251E-01
DAV:  41    -0.351487196063E+03   -0.71844E-03   -0.11026E-04   640   0.557E-02    0.221E-01
DAV:  42    -0.351487419145E+03   -0.22308E-03   -0.10273E-04   592   0.639E-02    0.173E-01
DAV:  43    -0.351488006097E+03   -0.58695E-03   -0.15674E-04   744   0.476E-02    0.924E-02
DAV:  44    -0.351488181001E+03   -0.17490E-03   -0.54599E-05   600   0.388E-02    0.666E-02
DAV:  45    -0.351488390603E+03   -0.20960E-03   -0.42644E-05   600   0.254E-02    0.398E-02
DAV:  46    -0.351488538203E+03   -0.14760E-03   -0.23832E-05   584   0.236E-02    0.283E-02
DAV:  47    -0.351488674739E+03   -0.13654E-03   -0.22413E-05   624   0.233E-02    0.236E-02
DAV:  48    -0.351488801235E+03   -0.12650E-03   -0.18673E-05   600   0.104E-02    0.131E-02
DAV:  49    -0.351488847115E+03   -0.45879E-04   -0.91603E-06   592   0.772E-03
   1 F= -.35148885E+03 E0= -.35073656E+03  d E =-.150458E+01
