       N       E                     dE             d eps       ncg     rms          rms(c)
DAV:   1     0.957123785184E+04    0.95712E+04   -0.53514E+05  1228   0.155E+03
DAV:   2     0.531208822207E+03   -0.90400E+04   -0.87248E+04  1074   0.497E+02
DAV:   3    -0.368495302627E+03   -0.89970E+03   -0.86278E+03  1152   0.167E+02
DAV:   4    -0.417192401151E+03   -0.48697E+02   -0.48165E+02  1136   0.367E+01
DAV:   5    -0.419201645834E+03   -0.20092E+01   -0.20057E+01  1280   0.779E+00    0.100E+02
DAV:   6    -0.492197109842E+03   -0.72995E+02   -0.10753E+03  1224   0.129E+02    0.166E+02
DAV:   7    -0.383924014765E+03    0.10827E+03   -0.21028E+02  1160   0.730E+01    0.705E+01
DAV:   8    -0.458190743812E+03   -0.74267E+02   -0.25530E+02  1416   0.870E+01    0.160E+02
DAV:   9    -0.385194240477E+03    0.72997E+02   -0.12884E+02  1296   0.480E+01    0.581E+01
DAV:  10    -0.405316780151E+03   -0.20123E+02   -0.93480E+01  1400   0.628E+01    0.110E+02
DAV:  11    -0.386812408316E+03    0.18504E+02   -0.73751E+01  1392   0.391E+01    0.576E+01
DAV:  12    -0.374131831978E+03    0.12681E+02   -0.33941E+01  1384   0.309E+01    0.336E+01
DAV:  13    -0.371749089904E+03    0.23827E+01   -0.18229E+01  1384   0.263E+01    0.346E+01
DAV:  14    -0.367352080433E+03    0.43970E+01   -0.14031E+01  1296   0.197E+01    0.222E+01
DAV:  15    -0.366048397933E+03    0.13037E+01   -0.32528E+00  1352   0.109E+01    0.177E+01
DAV:  16    -0.365180955059E+03    0.86744E+00   -0.14030E+00  1336   0.758E+00    0.148E+01
DAV:  17    -0.364746101245E+03    0.43485E+00   -0.65832E-01  1352   0.494E+00    0.128E+01
DAV:  18    -0.364255482740E+03    0.49062E+00   -0.41528E-01  1384   0.419E+00    0.108E+01
DAV:  19    -0.363929244800E+03    0.32624E+00   -0.34516E-01  1352   0.392E+00    0.880E+00
DAV:  20    -0.363511537171E+03    0.41771E+00   -0.36601E-01  1472   0.407E+00    0.520E+00
DAV:  21    -0.363437136805E+03    0.74400E-01   -0.20293E-01  1384   0.235E+00    0.381E+00
DAV:  22    -0.363379473849E+03    0.57663E-01   -0.85798E-02  1312   0.161E+00    0.243E+00
DAV:  23    -0.363382613412E+03   -0.31396E-02   -0.83629E-02  1288   0.166E+00    0.262E+00
DAV:  24    -0.363359393598E+03    0.23220E-01   -0.57049E-02  1336   0.153E+00    0.141E+00
DAV:  25    -0.363362090591E+03   -0.26970E-02   -0.44144E-02  1344   0.150E+00    0.154E+00
DAV:  26    -0.363354219798E+03    0.78708E-02   -0.29507E-02  1344   0.114E+00    0.888E-01
DAV:  27    -0.363352341183E+03    0.18786E-02   -0.13972E-02  1368   0.738E-01    0.604E-01
DAV:  28    -0.363351418244E+03    0.92294E-03   -0.45181E-03  1320   0.424E-01    0.418E-01
DAV:  29    -0.363351278494E+03    0.13975E-03   -0.17404E-03  1288   0.279E-01    0.338E-01
DAV:  30    -0.363351577474E+03   -0.29898E-03   -0.10623E-03  1128   0.219E-01    0.270E-01
DAV:  31    -0.363351775450E+03   -0.19798E-03   -0.93268E-04  1112   0.232E-01    0.219E-01
DAV:  32    -0.363352277077E+03   -0.50163E-03   -0.73572E-04  1016   0.187E-01    0.147E-01
DAV:  33    -0.363352353459E+03   -0.76382E-04   -0.28589E-04   728   0.120E-01
   1 F= -.36335235E+03 E0= -.36279914E+03  d E =-.110642E+01
