 vasp.6.1.0 28Jan20 (build Mar 31 2020 17:42:31) gamma-only                     
  
 executed on             LinuxIFC date 2020.04.12  04:31:56
 running on   48 total cores
 distrk:  each k-point on   48 cores,    1 groups
 distr:  one band on NCORE=   6 cores,    8 groups


--------------------------------------------------------------------------------------------------------


 INCAR:
 POTCAR:    PAW_PBE Ni_pv 06Sep2000               
 POTCAR:    PAW_PBE S 06Sep2000                   
 POTCAR:    PAW_PBE Ni_pv 06Sep2000               
   VRHFIN =Ni:                                                                                      
   LEXCH  = PE                                                                                      
   EATOM  =  3501.1230 eV,  257.3253 Ry                                                             
                                                                                                    
   TITEL  = PAW_PBE Ni_pv 06Sep2000                                                                 
   LULTRA =        F    use ultrasoft PP ?                                                          
   IUNSCR =        1    unscreen: 0-lin 1-nonlin 2-no                                               
   RPACOR =    1.500    partial core radius                                                         
   POMASS =   58.690; ZVAL   =   16.000    mass and valenz                                          
   RCORE  =    2.000    outmost cutoff radius                                                       
   RWIGS  =    2.000; RWIGS  =    1.058    wigner-seitz radius (au A)                               
   ENMAX  =  367.986; ENMIN  =  275.989 eV                                                          
   RCLOC  =    1.301    cutoff for local pot                                                        
   LCOR   =        T    correct aug charges                                                         
   LPAW   =        T    paw PP                                                                      
   EAUG   =  703.443                                                                                
   DEXC   =    0.000                                                                                
   RMAX   =    2.041    core radius for proj-oper                                                   
   RAUG   =    1.300    factor for augmentation sphere                                              
   RDEP   =    2.103    radius for radial grids                                                     
   RDEPT  =    1.618    core radius for aug-charge                                                  
                                                                                                    
   Atomic configuration                                                                             
    8 entries                                                                                       
     n  l   j            E        occ.                                                              
     1  0  0.50     -8206.4253   2.0000                                                             
     2  0  0.50      -976.1748   2.0000                                                             
     2  1  1.50      -839.0571   6.0000                                                             
     3  0  0.50      -105.9991   2.0000                                                             
     3  1  1.50       -66.4603   6.0000                                                             
     3  2  2.50        -4.6458   9.0000                                                             
     4  0  0.50        -4.4926   1.0000                                                             
     4  3  2.50        -1.3606   0.0000                                                             
   Description                                                                                      
     l       E           TYP  RCUT    TYP  RCUT                                                     
     1    -66.4602962     23  1.700                                                                 
     1     -1.3605826     23  1.700                                                                 
     2     -4.6457867     23  2.000                                                                 
     2     -6.0063693     23  2.000                                                                 
     0     -4.4925576     23  1.900                                                                 
     0     16.3626226     23  1.900                                                                 
  local pseudopotential read in
  partial core-charges read in
  partial kinetic energy density read in
  atomic valenz-charges read in
  non local Contribution for L=           1  read in
    real space projection operators read in
  non local Contribution for L=           1  read in
    real space projection operators read in
  non local Contribution for L=           2  read in
    real space projection operators read in
  non local Contribution for L=           2  read in
    real space projection operators read in
  non local Contribution for L=           0  read in
    real space projection operators read in
  non local Contribution for L=           0  read in
    real space projection operators read in
    PAW grid and wavefunctions read in
 
   number of l-projection  operators is LMAX  =           6
   number of lm-projection operators is LMMAX =          18
 
 POTCAR:    PAW_PBE S 06Sep2000                   
   VRHFIN =S : s2p4                                                                                 
   LEXCH  = PE                                                                                      
   EATOM  =   276.8230 eV,   20.3459 Ry                                                             
                                                                                                    
   TITEL  = PAW_PBE S 06Sep2000                                                                     
   LULTRA =        F    use ultrasoft PP ?                                                          
   IUNSCR =        1    unscreen: 0-lin 1-nonlin 2-no                                               
   RPACOR =    1.500    partial core radius                                                         
   POMASS =   32.066; ZVAL   =    6.000    mass and valenz                                          
   RCORE  =    1.900    outmost cutoff radius                                                       
   RWIGS  =    2.200; RWIGS  =    1.164    wigner-seitz radius (au A)                               
   ENMAX  =  258.689; ENMIN  =  194.016 eV                                                          
   ICORE  =        2    local potential                                                             
   LCOR   =        T    correct aug charges                                                         
   LPAW   =        T    paw PP                                                                      
   EAUG   =  335.092                                                                                
   DEXC   =    0.000                                                                                
   RMAX   =    1.942    core radius for proj-oper                                                   
   RAUG   =    1.300    factor for augmentation sphere                                              
   RDEP   =    1.954    radius for radial grids                                                     
   RDEPT  =    1.744    core radius for aug-charge                                                  
                                                                                                    
   Atomic configuration                                                                             
    6 entries                                                                                       
     n  l   j            E        occ.                                                              
     1  0  0.50     -2405.8406   2.0000                                                             
     2  0  0.50      -211.7007   2.0000                                                             
     2  1  1.50      -156.4958   6.0000                                                             
     3  0  0.50       -17.2562   2.0000                                                             
     3  1  0.50        -7.0085   4.0000                                                             
     3  2  1.50        -6.8029   0.0000                                                             
   Description                                                                                      
     l       E           TYP  RCUT    TYP  RCUT                                                     
     0    -17.2561641     23  1.900                                                                 
     0    -15.8743224     23  1.900                                                                 
     1     -7.0085400     23  1.900                                                                 
     1     -2.7779785     23  1.900                                                                 
     2     -6.8029130     23  1.900                                                                 
  local pseudopotential read in
  partial core-charges read in
  partial kinetic energy density read in
  atomic valenz-charges read in
  non local Contribution for L=           0  read in
    real space projection operators read in
  non local Contribution for L=           0  read in
    real space projection operators read in
  non local Contribution for L=           1  read in
    real space projection operators read in
  non local Contribution for L=           1  read in
    real space projection operators read in
    PAW grid and wavefunctions read in
 
   number of l-projection  operators is LMAX  =           4
   number of lm-projection operators is LMMAX =           8
 
 Optimization of the real space projectors (new method)

 maximal supplied QI-value         = 18.90
 optimisation between [QCUT,QGAM] = [ 10.77, 21.73] = [ 32.49,132.25] Ry 
 Optimized for a Real-space Cutoff    1.38 Angstroem

   l    n(q)    QCUT    max X(q) W(low)/X(q) W(high)/X(q)  e(spline) 
   1      8    10.771     2.836    0.40E-04    0.29E-04    0.12E-06
   1      8    10.771     4.023    0.10E-03    0.48E-04    0.29E-06
   2      8    10.771    73.368    0.42E-03    0.97E-04    0.44E-06
   2      8    10.771    69.010    0.42E-03    0.99E-04    0.45E-06
   0      9    10.771    54.797    0.10E-03    0.56E-04    0.74E-07
   0      9    10.771    24.266    0.89E-04    0.49E-04    0.67E-07
 Optimization of the real space projectors (new method)

 maximal supplied QI-value         = 19.84
 optimisation between [QCUT,QGAM] = [ 10.71, 21.63] = [ 32.15,130.99] Ry 
 Optimized for a Real-space Cutoff    1.19 Angstroem

   l    n(q)    QCUT    max X(q) W(low)/X(q) W(high)/X(q)  e(spline) 
   0      8    10.715   187.594    0.41E-03    0.53E-04    0.66E-07
   0      8    10.715   164.243    0.41E-03    0.53E-04    0.65E-07
   1      7    10.715    67.533    0.19E-03    0.59E-03    0.68E-07
   1      7    10.715    50.729    0.19E-03    0.58E-03    0.67E-07
  PAW_PBE Ni_pv 06Sep2000               :
 energy of atom  1       EATOM=-3501.1230
 kinetic energy error for atom=    0.0925 (will be added to EATOM!!)
  PAW_PBE S 06Sep2000                   :
 energy of atom  2       EATOM= -276.8230
 kinetic energy error for atom=    0.0033 (will be added to EATOM!!)
 
 
 POSCAR: Structure 35 made from -111-7.xsd file
  positions in direct lattice
  No initial velocities read in
 exchange correlation table for  LEXCH =        8
   RHO(1)=    0.500       N(1)  =     2000
   RHO(2)=  100.500       N(2)  =     4000
 


--------------------------------------------------------------------------------------------------------


 ion  position               nearest neighbor table
   1  0.261  0.479  0.291-  79 2.25  63 2.26  87 2.26  59 2.36  64 2.36   7 2.53  23 2.53
   2  0.355  0.385  0.419-  80 2.25  59 2.26  64 2.26  65 2.36  71 2.36   8 2.53  24 2.53
   3  0.167  0.073  0.162-  69 2.25  60 2.26  88 2.26  61 2.36  89 2.36  38 2.53  32 2.53
   4  0.056  0.051  0.513-  84 2.25  54 2.26  78 2.26  83 2.36  11 2.53
   5  0.180  0.427  0.000-  55 2.36  62 2.36  29 2.53  39 2.53
   6  0.274  0.333  0.128-  60 2.25  62 2.26  55 2.26  56 2.36  63 2.36  12 2.53  30 2.53
   7  0.368  0.239  0.257-  61 2.25  63 2.26  56 2.26  64 2.36  66 2.36   1 2.53  23 2.53
   8  0.462  0.145  0.385-  85 2.25  64 2.26  66 2.26  65 2.36  67 2.36   2 2.53  24 2.53
   9  0.000  0.372  0.257-  63 2.25  69 2.26 100 2.26  53 2.36  72 2.36  14 2.53  21 2.53
  10  0.094  0.278  0.385-  64 2.25  53 2.26  72 2.26  54 2.36  58 2.36  22 2.53  15 2.53
  11  0.188  0.184  0.513-  65 2.25  58 2.26  54 2.26  83 2.36   4 2.53
  12  0.406  0.465  0.128-  75 2.25  55 2.26  86 2.26  56 2.36  87 2.36  30 2.53   6 2.53
  13  0.312  0.059  0.000-  60 2.36  81 2.36
  14  0.761  0.479  0.291-  92 2.25  76 2.26 100 2.26  72 2.36  77 2.36  21 2.53   9 2.53
  15  0.855  0.385  0.419-  93 2.25  72 2.26  77 2.26  78 2.36  58 2.36  22 2.53  10 2.53
  16  0.573  0.167  0.034-  55 2.25  73 2.36 101 2.36
  17  0.667  0.073  0.162-  56 2.25  73 2.26 101 2.26  74 2.36 102 2.36  51 2.53  45 2.53
  18  0.556  0.051  0.513-  97 2.25  67 2.26  65 2.26  96 2.36  25 2.53
  19  0.680  0.427  0.000-  68 2.36  75 2.36  42 2.53  52 2.53
  20  0.774  0.333  0.128-  73 2.25  75 2.26  68 2.26  69 2.36  76 2.36  26 2.53  43 2.53
  21  0.868  0.239  0.257-  74 2.25  76 2.26  69 2.26  77 2.36  53 2.36  14 2.53   9 2.53
  22  0.962  0.145  0.385-  98 2.25  77 2.26  53 2.26  78 2.36  54 2.36  15 2.53  10 2.53
  23  0.500  0.372  0.257-  76 2.25  56 2.26  87 2.26  66 2.36  59 2.36   1 2.53   7 2.53
  24  0.594  0.278  0.385-  77 2.25  66 2.26  59 2.26  67 2.36  71 2.36   8 2.53   2 2.53
  25  0.688  0.184  0.513-  78 2.25  71 2.26  67 2.26  96 2.36  18 2.53
  26  0.906  0.465  0.128-  62 2.25  68 2.26  99 2.26  69 2.36 100 2.36  43 2.53  20 2.53
  27  0.261  0.979  0.291-  53 2.25  89 2.26  61 2.26  85 2.36  90 2.36  33 2.53  48 2.53
  28  0.355  0.885  0.419-  54 2.25  85 2.26  90 2.26  91 2.36  97 2.36  34 2.53  49 2.53
  29  0.073  0.667  0.034-  94 2.25  86 2.36  62 2.36  39 2.53   5 2.53
  30  0.167  0.573  0.162-  95 2.25  86 2.26  62 2.26  87 2.36  63 2.36  12 2.53   6 2.53
  31  0.056  0.551  0.513-  58 2.25  80 2.26 104 2.26  57 2.36  37 2.53
  32  0.274  0.833  0.128-  86 2.25  88 2.26  81 2.26  82 2.36  89 2.36  38 2.53   3 2.53
  33  0.368  0.739  0.257-  87 2.25  89 2.26  82 2.26  90 2.36  92 2.36  27 2.53  48 2.53
  34  0.462  0.645  0.385-  59 2.25  90 2.26  92 2.26  91 2.36  93 2.36  28 2.53  49 2.53
  35  0.000  0.872  0.257-  89 2.25  95 2.26  74 2.26  79 2.36  98 2.36  40 2.53  46 2.53
  36  0.094  0.778  0.385-  90 2.25  79 2.26  98 2.26  80 2.36  84 2.36  47 2.53  41 2.53
  37  0.188  0.684  0.513-  91 2.25  84 2.26  80 2.26  57 2.36  31 2.53
  38  0.406  0.965  0.128- 101 2.25  81 2.26  60 2.26  82 2.36  61 2.36   3 2.53  32 2.53
  39  0.312  0.559  0.000-  86 2.36  55 2.36  29 2.53   5 2.53
  40  0.761  0.979  0.291-  66 2.25 102 2.26  74 2.26  98 2.36 103 2.36  46 2.53  35 2.53
  41  0.855  0.885  0.419-  67 2.25  98 2.26 103 2.26 104 2.36  84 2.36  47 2.53  36 2.53
  42  0.573  0.667  0.034-  81 2.25  99 2.36  75 2.36  52 2.53  19 2.53
  43  0.667  0.573  0.162-  82 2.25  99 2.26  75 2.26 100 2.36  76 2.36  26 2.53  20 2.53
  44  0.556  0.551  0.513-  71 2.25  93 2.26  91 2.26  70 2.36  50 2.53
  45  0.774  0.833  0.128-  99 2.25 101 2.26  94 2.26  95 2.36 102 2.36  51 2.53  17 2.53
  46  0.868  0.739  0.257- 100 2.25 102 2.26  95 2.26 103 2.36  79 2.36  40 2.53  35 2.53
  47  0.962  0.645  0.385-  72 2.25 103 2.26  79 2.26 104 2.36  80 2.36  41 2.53  36 2.53
  48  0.500  0.872  0.257- 102 2.25  82 2.26  61 2.26  92 2.36  85 2.36  27 2.53  33 2.53
  49  0.594  0.778  0.385- 103 2.25  92 2.26  85 2.26  93 2.36  97 2.36  34 2.53  28 2.53
  50  0.688  0.684  0.513- 104 2.25  97 2.26  93 2.26  70 2.36  44 2.53
  51  0.906  0.965  0.128-  88 2.25  94 2.26  73 2.26  95 2.36  74 2.36  17 2.53  45 2.53
  52  0.812  0.559  0.000-  99 2.36  68 2.36  42 2.53  19 2.53
  53  0.073  0.167  0.306-  27 2.25  10 2.26  22 2.26   9 2.36  21 2.36
  54  0.167  0.073  0.435-  28 2.25  11 2.26   4 2.26  10 2.36  22 2.36
  55  0.385  0.355  0.050-  16 2.25  12 2.26   6 2.26   5 2.36  39 2.36
  56  0.479  0.261  0.178-  17 2.25   7 2.26  23 2.26   6 2.36  12 2.36
  57  0.261  0.479  0.563-  31 2.36  37 2.36
  58  0.030  0.378  0.478-  31 2.25  11 2.26  10 2.36  15 2.36
  59  0.436  0.472  0.350-  34 2.25   2 2.26  24 2.26   1 2.36  23 2.36
  60  0.248  0.160  0.093-   6 2.25   3 2.26  38 2.26  13 2.36
  61  0.342  0.066  0.221-   7 2.25  27 2.26  48 2.26   3 2.36  38 2.36
  62  0.080  0.491  0.093-  26 2.25   6 2.26  30 2.26   5 2.36  29 2.36
  63  0.174  0.397  0.221-   9 2.25   7 2.26   1 2.26   6 2.36  30 2.36
  64  0.268  0.303  0.350-  10 2.25   2 2.26   8 2.26   1 2.36   7 2.36
  65  0.362  0.209  0.478-  11 2.25  18 2.26   2 2.36   8 2.36
  66  0.573  0.167  0.306-  40 2.25  24 2.26   8 2.26  23 2.36   7 2.36
  67  0.667  0.073  0.435-  41 2.25  25 2.26  18 2.26  24 2.36   8 2.36
  68  0.885  0.355  0.050-  26 2.26  20 2.26  19 2.36  52 2.36
  69  0.979  0.261  0.178-   3 2.25  21 2.26   9 2.26  20 2.36  26 2.36
  70  0.761  0.479  0.563-  44 2.36  50 2.36
  71  0.530  0.378  0.478-  44 2.25  25 2.26  24 2.36   2 2.36
  72  0.936  0.472  0.350-  47 2.25  15 2.26  10 2.26  14 2.36   9 2.36
  73  0.748  0.160  0.093-  20 2.25  17 2.26  51 2.26  16 2.36
  74  0.842  0.066  0.221-  21 2.25  40 2.26  35 2.26  17 2.36  51 2.36
  75  0.580  0.491  0.093-  12 2.25  20 2.26  43 2.26  19 2.36  42 2.36
  76  0.674  0.397  0.221-  23 2.25  21 2.26  14 2.26  20 2.36  43 2.36
  77  0.768  0.303  0.350-  24 2.25  15 2.26  22 2.26  14 2.36  21 2.36
  78  0.862  0.209  0.478-  25 2.25   4 2.26  15 2.36  22 2.36
  79  0.073  0.667  0.306-   1 2.25  36 2.26  47 2.26  35 2.36  46 2.36
  80  0.167  0.573  0.435-   2 2.25  37 2.26  31 2.26  36 2.36  47 2.36
  81  0.385  0.855  0.050-  42 2.25  38 2.26  32 2.26  13 2.36
  82  0.479  0.761  0.178-  43 2.25  33 2.26  48 2.26  32 2.36  38 2.36
  83  0.261  0.979  0.563-   4 2.36  11 2.36
  84  0.030  0.878  0.478-   4 2.25  37 2.26  36 2.36  41 2.36
  85  0.436  0.972  0.350-   8 2.25  28 2.26  49 2.26  27 2.36  48 2.36
  86  0.248  0.660  0.093-  32 2.25  30 2.26  12 2.26  29 2.36  39 2.36
  87  0.342  0.566  0.221-  33 2.25   1 2.26  23 2.26  30 2.36  12 2.36
  88  0.080  0.991  0.093-  51 2.25  32 2.26   3 2.26
  89  0.174  0.897  0.221-  35 2.25  33 2.26  27 2.26  32 2.36   3 2.36
  90  0.268  0.803  0.350-  36 2.25  28 2.26  34 2.26  27 2.36  33 2.36
  91  0.362  0.709  0.478-  37 2.25  44 2.26  28 2.36  34 2.36
  92  0.573  0.667  0.306-  14 2.25  49 2.26  34 2.26  48 2.36  33 2.36
  93  0.667  0.573  0.435-  15 2.25  50 2.26  44 2.26  49 2.36  34 2.36
  94  0.885  0.855  0.050-  29 2.25  51 2.26  45 2.26
  95  0.979  0.761  0.178-  30 2.25  46 2.26  35 2.26  45 2.36  51 2.36
  96  0.761  0.979  0.563-  18 2.36  25 2.36
  97  0.530  0.878  0.478-  18 2.25  50 2.26  49 2.36  28 2.36
  98  0.936  0.972  0.350-  22 2.25  41 2.26  36 2.26  40 2.36  35 2.36
  99  0.748  0.660  0.093-  45 2.25  43 2.26  26 2.26  42 2.36  52 2.36
 100  0.842  0.566  0.221-  46 2.25  14 2.26   9 2.26  43 2.36  26 2.36
 101  0.580  0.991  0.093-  38 2.25  45 2.26  17 2.26  16 2.36
 102  0.674  0.897  0.221-  48 2.25  46 2.26  40 2.26  45 2.36  17 2.36
 103  0.768  0.803  0.350-  49 2.25  41 2.26  47 2.26  40 2.36  46 2.36
 104  0.862  0.709  0.478-  50 2.25  31 2.26  41 2.36  47 2.36
 
  LATTYP: Found a base centered orthorhombic cell.
 ALAT       =    11.8257374459
 B/A-ratio  =     1.6199260857
 C/A-ratio  =     1.9350716598
  
  Lattice vectors:
  
 A1 = (  10.0628203371,   5.0445621212,   0.0000000000)
 A2 = (   0.0000000000, -11.2564630382,   0.0000000000)
 A3 = (   0.0000000000,   0.0000000000, -22.8836493875)


Analysis of symmetry for initial positions (statically):
=====================================================================
 Subroutine PRICEL returns:
 Original cell was already a primitive cell.
 

 Routine SETGRP: Setting up the symmetry group for a 
 base centered orthorhombic supercell.


 Subroutine GETGRP returns: Found  1 space group operations
 (whereof  1 operations were pure point group operations)
 out of a pool of  8 trial point group operations.


The static configuration has the point symmetry C_1 .


Analysis of symmetry for dynamics (positions and initial velocities):
=====================================================================
 Subroutine PRICEL returns:
 Original cell was already a primitive cell.
 

 Routine SETGRP: Setting up the symmetry group for a 
 base centered orthorhombic supercell.


 Subroutine GETGRP returns: Found  1 space group operations
 (whereof  1 operations were pure point group operations)
 out of a pool of  8 trial point group operations.


The dynamic configuration has the point symmetry C_1 .


 Subroutine INISYM returns: Found  1 space group operations
 (whereof  1 operations are pure point group operations),
 and found     1 'primitive' translations


----------------------------------------------------------------------------------------

                                     Primitive cell                                     

  volume of cell :    2592.0714

  direct lattice vectors                    reciprocal lattice vectors
    10.062820337  5.044562121  0.000000000     0.099375718  0.000000000  0.000000000
     0.000000000 11.256463038  0.000000000    -0.044535036  0.088837852  0.000000000
     0.000000000  0.000000000 22.883649388     0.000000000  0.000000000  0.043699324

  length of vectors
    11.256463038 11.256463038 22.883649388     0.099375718  0.099375718  0.043699324

  position of ions in fractional coordinates (direct lattice)
     0.260920696  0.478780360  0.290506114
     0.354880562  0.384820493  0.418809861
     0.166960829  0.072740241  0.162202367
     0.056118679  0.051479395  0.513214988
     0.180279198  0.427318861  0.000000000
     0.274239065  0.333358994  0.128303747
     0.368198931  0.239399128  0.256607494
     0.462158798  0.145439262  0.384911241
     0.000301942  0.371502124  0.256607494
     0.094261809  0.277542258  0.384911241
     0.188221675  0.183582391  0.513214988
     0.406342061  0.465461991  0.128303747
     0.312382194  0.059421872  0.000000000
     0.760920696  0.478780360  0.290506114
     0.854880562  0.384820493  0.418809861
     0.573000963  0.166700107  0.033898620
     0.666960829  0.072740241  0.162202367
     0.556118679  0.051479395  0.513214988
     0.680279198  0.427318861  0.000000000
     0.774239065  0.333358994  0.128303747
     0.868198931  0.239399128  0.256607494
     0.962158798  0.145439262  0.384911241
     0.500301942  0.371502124  0.256607494
     0.594261809  0.277542258  0.384911241
     0.688221675  0.183582391  0.513214988
     0.906342061  0.465461991  0.128303747
     0.260920696  0.978780360  0.290506114
     0.354880562  0.884820493  0.418809861
     0.073000963  0.666700107  0.033898620
     0.166960829  0.572740241  0.162202367
     0.056118679  0.551479395  0.513214988
     0.274239065  0.833358994  0.128303747
     0.368198931  0.739399128  0.256607494
     0.462158798  0.645439262  0.384911241
     0.000301942  0.871502124  0.256607494
     0.094261809  0.777542258  0.384911241
     0.188221675  0.683582391  0.513214988
     0.406342061  0.965461991  0.128303747
     0.312382194  0.559421872  0.000000000
     0.760920696  0.978780360  0.290506114
     0.854880562  0.884820493  0.418809861
     0.573000963  0.666700107  0.033898620
     0.666960829  0.572740241  0.162202367
     0.556118679  0.551479395  0.513214988
     0.774239065  0.833358994  0.128303747
     0.868198931  0.739399128  0.256607494
     0.962158798  0.645439262  0.384911241
     0.500301942  0.871502124  0.256607494
     0.594261809  0.777542258  0.384911241
     0.688221675  0.683582391  0.513214988
     0.906342061  0.965461991  0.128303747
     0.812382194  0.559421872  0.000000000
     0.072877635  0.166823435  0.306399270
     0.166837502  0.072863568  0.434703017
     0.384957888  0.354743168  0.049791776
     0.478917754  0.260783301  0.178095523
     0.260797368  0.478903687  0.563006764
     0.030233425  0.377682640  0.477868247
     0.436273543  0.471642507  0.349564500
     0.248353811  0.159562255  0.092957006
     0.342313677  0.065602388  0.221260753
     0.080138816  0.491347245  0.092957006
     0.174098682  0.397387378  0.221260753
     0.268058548  0.303427512  0.349564500
     0.362018415  0.209467645  0.477868247
     0.572877635  0.166823435  0.306399270
     0.666837502  0.072863568  0.434703017
     0.884957888  0.354743168  0.049791776
     0.978917754  0.260783301  0.178095523
     0.760797368  0.478903687  0.563006764
     0.530233425  0.377682640  0.477868247
     0.936273543  0.471642507  0.349564500
     0.748353811  0.159562255  0.092957006
     0.842313677  0.065602388  0.221260753
     0.580138816  0.491347245  0.092957006
     0.674098682  0.397387378  0.221260753
     0.768058548  0.303427512  0.349564500
     0.862018415  0.209467645  0.477868247
     0.072877635  0.666823435  0.306399270
     0.166837502  0.572863568  0.434703017
     0.384957888  0.854743168  0.049791776
     0.478917754  0.760783301  0.178095523
     0.260797368  0.978903687  0.563006764
     0.030233425  0.877682640  0.477868247
     0.436273543  0.971642507  0.349564500
     0.248353811  0.659562255  0.092957006
     0.342313677  0.565602388  0.221260753
     0.080138816  0.991347245  0.092957006
     0.174098682  0.897387378  0.221260753
     0.268058548  0.803427512  0.349564500
     0.362018415  0.709467645  0.477868247
     0.572877635  0.666823435  0.306399270
     0.666837502  0.572863568  0.434703017
     0.884957888  0.854743168  0.049791776
     0.978917754  0.760783301  0.178095523
     0.760797368  0.978903687  0.563006764
     0.530233425  0.877682640  0.477868247
     0.936273543  0.971642507  0.349564500
     0.748353811  0.659562255  0.092957006
     0.842313677  0.565602388  0.221260753
     0.580138816  0.991347245  0.092957006
     0.674098682  0.897387378  0.221260753
     0.768058548  0.803427512  0.349564500
     0.862018415  0.709467645  0.477868247

  ion indices of the primitive-cell ions
   primitive index   ion index
                 1           1
                 2           2
                 3           3
                 4           4
                 5           5
                 6           6
                 7           7
                 8           8
                 9           9
                10          10
                11          11
                12          12
                13          13
                14          14
                15          15
                16          16
                17          17
                18          18
                19          19
                20          20
                21          21
                22          22
                23          23
                24          24
                25          25
                26          26
                27          27
                28          28
                29          29
                30          30
                31          31
                32          32
                33          33
                34          34
                35          35
                36          36
                37          37
                38          38
                39          39
                40          40
                41          41
                42          42
                43          43
                44          44
                45          45
                46          46
                47          47
                48          48
                49          49
                50          50
                51          51
                52          52
                53          53
                54          54
                55          55
                56          56
                57          57
                58          58
                59          59
                60          60
                61          61
                62          62
                63          63
                64          64
                65          65
                66          66
                67          67
                68          68
                69          69
                70          70
                71          71
                72          72
                73          73
                74          74
                75          75
                76          76
                77          77
                78          78
                79          79
                80          80
                81          81
                82          82
                83          83
                84          84
                85          85
                86          86
                87          87
                88          88
                89          89
                90          90
                91          91
                92          92
                93          93
                94          94
                95          95
                96          96
                97          97
                98          98
                99          99
               100         100
               101         101
               102         102
               103         103
               104         104

----------------------------------------------------------------------------------------

 
 
 KPOINTS: gamma-point-only calculation. no periodi

Automatic generation of k-mesh.
Space group operators:
 irot       det(A)        alpha          n_x          n_y          n_z        tau_x        tau_y        tau_z
    1     1.000000     0.000001     1.000000     0.000000     0.000000     0.000000     0.000000     0.000000
 
 Subroutine IBZKPT returns following result:
 ===========================================
 
 Found      1 irreducible k-points:
 
 Following reciprocal coordinates:
            Coordinates               Weight
  0.000000  0.000000  0.000000      1.000000
 
 Following cartesian coordinates:
            Coordinates               Weight
  0.000000  0.000000  0.000000      1.000000
 


--------------------------------------------------------------------------------------------------------




 Dimension of arrays:
   k-points           NKPTS =      1   k-points in BZ     NKDIM =      1   number of bands    NBANDS=    688
   number of dos      NEDOS =    301   number of ions     NIONS =    104
   non local maximal  LDIM  =      6   non local SUM 2l+1 LMDIM =     18
   total plane-waves  NPLWV = 432000
   max r-space proj   IRMAX =   1888   max aug-charges    IRDMAX=   5450
   dimension x,y,z NGX =    60 NGY =   60 NGZ =  120
   dimension x,y,z NGXF=   120 NGYF=  120 NGZF=  240
   support grid    NGXF=   120 NGYF=  120 NGZF=  240
   ions per type =              52  52
   NGX,Y,Z   is equivalent  to a cutoff of   8.86,  8.86,  8.72 a.u.
   NGXF,Y,Z  is equivalent  to a cutoff of  17.72, 17.72, 17.44 a.u.

 SYSTEM =  "Millerite NiS"                         
 POSCAR =  Structure 35 made from -111-7.xsd file  

 Startparameter for this run:
   NWRITE =      2    write-flag & timer
   PREC   = normal    normal or accurate (medium, high low for compatibility)
   ISTART =      0    job   : 0-new  1-cont  2-samecut
   ICHARG =      2    charge: 1-file 2-atom 10-const
   ISPIN  =      1    spin polarized calculation?
   LNONCOLLINEAR =      F non collinear calculations
   LSORBIT =      F    spin-orbit coupling
   INIWAV =      1    electr: 0-lowe 1-rand  2-diag
   LASPH  =      F    aspherical Exc in radial PAW
   METAGGA=      F    non-selfconsistent MetaGGA calc.

 Electronic Relaxation 1
   ENCUT  =  450.0 eV  33.07 Ry    5.75 a.u.  19.47 19.47 39.58*2*pi/ulx,y,z
   ENINI  =  450.0     initial cutoff
   ENAUG  =  703.4 eV  augmentation charge cutoff
   NELM   =    100;   NELMIN=  2; NELMDL= -5     # of ELM steps 
   EDIFF  = 0.1E-03   stopping-criterion for ELM
   LREAL  =      T    real-space projection
   NLSPLINE    = F    spline interpolate recip. space projectors
   LCOMPAT=      F    compatible to vasp.4.4
   GGA_COMPAT  = T    GGA compatible to vasp.4.4-vasp.4.6
   LMAXPAW     = -100 max onsite density
   LMAXMIX     =    2 max onsite mixed and CHGCAR
   VOSKOWN=      0    Vosko Wilk Nusair interpolation
   ROPT   =   -0.00050  -0.00050
 Ionic relaxation
   EDIFFG = 0.1E-02   stopping-criterion for IOM
   NSW    =      0    number of steps for IOM
   NBLOCK =      1;   KBLOCK =      1    inner block; outer block 
   IBRION =     -1    ionic relax: 0-MD 1-quasi-New 2-CG
   NFREE  =      0    steps in history (QN), initial steepest desc. (CG)
   ISIF   =      2    stress and relaxation
   IWAVPR =     10    prediction:  0-non 1-charg 2-wave 3-comb
   ISYM   =      2    0-nonsym 1-usesym 2-fastsym
   LCORR  =      T    Harris-Foulkes like correction to forces

   POTIM  = 0.5000    time-step for ionic-motion
   TEIN   =    0.0    initial temperature
   TEBEG  =    0.0;   TEEND  =   0.0 temperature during run
   SMASS  =  -3.00    Nose mass-parameter (am)
   estimated Nose-frequenzy (Omega)   =  0.10E-29 period in steps = 0.13E+47 mass=  -0.290E-26a.u.
   SCALEE = 1.0000    scale energy and forces
   NPACO  =    256;   APACO  = 16.0  distance and # of slots for P.C.
   PSTRESS=    0.0 pullay stress

  Mass of Ions in am
   POMASS =  58.69 32.07
  Ionic Valenz
   ZVAL   =  16.00  6.00
  Atomic Wigner-Seitz radii
   RWIGS  =  -1.00 -1.00
  virtual crystal weights 
   VCA    =   1.00  1.00
   NELECT =    1144.0000    total number of electrons
   NUPDOWN=      -1.0000    fix difference up-down

 DOS related values:
   EMIN   =  10.00;   EMAX   =-10.00  energy-range for DOS
   EFERMI =   0.00
   ISMEAR =     0;   SIGMA  =   0.20  broadening in eV -4-tet -1-fermi 0-gaus

 Electronic relaxation 2 (details)
   IALGO  =     38    algorithm
   LDIAG  =      T    sub-space diagonalisation (order eigenvalues)
   LSUBROT=      F    optimize rotation matrix (better conditioning)
   TURBO    =      0    0=normal 1=particle mesh
   IRESTART =      0    0=no restart 2=restart with 2 vectors
   NREBOOT  =      0    no. of reboots
   NMIN     =      0    reboot dimension
   EREF     =   0.00    reference energy to select bands
   IMIX   =      4    mixing-type and parameters
     AMIX     =   0.40;   BMIX     =  1.00
     AMIX_MAG =   1.60;   BMIX_MAG =  1.00
     AMIN     =   0.10
     WC   =   100.;   INIMIX=   1;  MIXPRE=   1;  MAXMIX= -45

 Intra band minimization:
   WEIMIN = 0.0000     energy-eigenvalue tresh-hold
   EBREAK =  0.36E-07  absolut break condition
   DEPER  =   0.30     relativ break condition  

   TIME   =   0.40     timestep for ELM

  volume/ion in A,a.u.               =      24.92       168.19
  Fermi-wavevector in a.u.,A,eV,Ry     =   1.246430  2.355411 21.137841  1.553587
  Thomas-Fermi vector in A             =   2.380608
 
 Write flags
   LWAVE        =      F    write WAVECAR
   LDOWNSAMPLE  =      F    k-point downsampling of WAVECAR
   LCHARG       =      F    write CHGCAR
   LVTOT        =      F    write LOCPOT, total local potential
   LVHAR        =      F    write LOCPOT, Hartree potential only
   LELF         =      F    write electronic localiz. function (ELF)
   LORBIT       =      0    0 simple, 1 ext, 2 COOP (PROOUT), +10 PAW based schemes


 Dipole corrections
   LMONO  =      F    monopole corrections only (constant potential shift)
   LDIPOL =      F    correct potential (dipole corrections)
   IDIPOL =      0    1-x, 2-y, 3-z, 4-all directions 
   EPSILON=  1.0000000 bulk dielectric constant

 Exchange correlation treatment:
   GGA     =    --    GGA type
   LEXCH   =     8    internal setting for exchange type
   VOSKOWN=      0    Vosko Wilk Nusair interpolation
   LHFCALC =     F    Hartree Fock is set to
   LHFONE  =     F    Hartree Fock one center treatment
   AEXX    =    0.0000 exact exchange contribution

 Linear response parameters
   LEPSILON=     F    determine dielectric tensor
   LRPA    =     F    only Hartree local field effects (RPA)
   LNABLA  =     F    use nabla operator in PAW spheres
   LVEL    =     F    velocity operator in full k-point grid
   LINTERFAST=   F  fast interpolation
   KINTER  =     0    interpolate to denser k-point grid
   CSHIFT  =0.1000    complex shift for real part using Kramers Kronig
   OMEGAMAX=  -1.0    maximum frequency
   DEG_THRESHOLD= 0.2000000E-02 threshold for treating states as degnerate
   RTIME   =   -0.100 relaxation time in fs
  (WPLASMAI=    0.000 imaginary part of plasma frequency in eV, 0.658/RTIME)
   DFIELD  = 0.0000000 0.0000000 0.0000000 field for delta impulse in time
 
 Orbital magnetization related:
   ORBITALMAG=     F  switch on orbital magnetization
   LCHIMAG   =     F  perturbation theory with respect to B field
   DQ        =  0.001000  dq finite difference perturbation B field
   LLRAUG    =     F  two centre corrections for induced B field



--------------------------------------------------------------------------------------------------------


 Static calculation
 charge density and potential will be updated during run
 non-spin polarized calculation
 Variant of blocked Davidson
 Davidson routine will perform the subspace rotation
 perform sub-space diagonalisation
    after iterative eigenvector-optimisation
 modified Broyden-mixing scheme, WC =      100.0
 initial mixing is a Kerker type mixing with AMIX =  0.4000 and BMIX =      1.0000
 Hartree-type preconditioning will be used
 using additional bands          116
 real space projection scheme for non local part
 use partial core corrections
 calculate Harris-corrections to forces 
   (improved forces if not selfconsistent)
 use gradient corrections 
 use of overlap-Matrix (Vanderbilt PP)
 Gauss-broadening in eV      SIGMA  =   0.20


--------------------------------------------------------------------------------------------------------


  energy-cutoff  :      450.00
  volume of cell :     2592.07
      direct lattice vectors                 reciprocal lattice vectors
    10.062820337  5.044562121  0.000000000     0.099375718  0.000000000  0.000000000
     0.000000000 11.256463038  0.000000000    -0.044535036  0.088837852  0.000000000
     0.000000000  0.000000000 22.883649388     0.000000000  0.000000000  0.043699324

  length of vectors
    11.256463038 11.256463038 22.883649388     0.099375718  0.099375718  0.043699324


 
 k-points in units of 2pi/SCALE and weight: gamma-point-only calculation. no periodi
   0.00000000  0.00000000  0.00000000       1.000
 
 k-points in reciprocal lattice and weights: gamma-point-only calculation. no periodi
   0.00000000  0.00000000  0.00000000       1.000
 
 position of ions in fractional coordinates (direct lattice) 
   0.26092070  0.47878036  0.29050611
   0.35488056  0.38482049  0.41880986
   0.16696083  0.07274024  0.16220237
   0.05611868  0.05147940  0.51321499
   0.18027920  0.42731886  0.00000000
   0.27423907  0.33335899  0.12830375
   0.36819893  0.23939913  0.25660749
   0.46215880  0.14543926  0.38491124
   0.00030194  0.37150212  0.25660749
   0.09426181  0.27754226  0.38491124
   0.18822168  0.18358239  0.51321499
   0.40634206  0.46546199  0.12830375
   0.31238219  0.05942187  0.00000000
   0.76092070  0.47878036  0.29050611
   0.85488056  0.38482049  0.41880986
   0.57300096  0.16670011  0.03389862
   0.66696083  0.07274024  0.16220237
   0.55611868  0.05147940  0.51321499
   0.68027920  0.42731886  0.00000000
   0.77423907  0.33335899  0.12830375
   0.86819893  0.23939913  0.25660749
   0.96215880  0.14543926  0.38491124
   0.50030194  0.37150212  0.25660749
   0.59426181  0.27754226  0.38491124
   0.68822168  0.18358239  0.51321499
   0.90634206  0.46546199  0.12830375
   0.26092070  0.97878036  0.29050611
   0.35488056  0.88482049  0.41880986
   0.07300096  0.66670011  0.03389862
   0.16696083  0.57274024  0.16220237
   0.05611868  0.55147940  0.51321499
   0.27423907  0.83335899  0.12830375
   0.36819893  0.73939913  0.25660749
   0.46215880  0.64543926  0.38491124
   0.00030194  0.87150212  0.25660749
   0.09426181  0.77754226  0.38491124
   0.18822168  0.68358239  0.51321499
   0.40634206  0.96546199  0.12830375
   0.31238219  0.55942187  0.00000000
   0.76092070  0.97878036  0.29050611
   0.85488056  0.88482049  0.41880986
   0.57300096  0.66670011  0.03389862
   0.66696083  0.57274024  0.16220237
   0.55611868  0.55147940  0.51321499
   0.77423907  0.83335899  0.12830375
   0.86819893  0.73939913  0.25660749
   0.96215880  0.64543926  0.38491124
   0.50030194  0.87150212  0.25660749
   0.59426181  0.77754226  0.38491124
   0.68822168  0.68358239  0.51321499
   0.90634206  0.96546199  0.12830375
   0.81238219  0.55942187  0.00000000
   0.07287763  0.16682343  0.30639927
   0.16683750  0.07286357  0.43470302
   0.38495789  0.35474317  0.04979178
   0.47891775  0.26078330  0.17809552
   0.26079737  0.47890369  0.56300676
   0.03023342  0.37768264  0.47786825
   0.43627354  0.47164251  0.34956450
   0.24835381  0.15956225  0.09295701
   0.34231368  0.06560239  0.22126075
   0.08013882  0.49134725  0.09295701
   0.17409868  0.39738738  0.22126075
   0.26805855  0.30342751  0.34956450
   0.36201842  0.20946764  0.47786825
   0.57287763  0.16682343  0.30639927
   0.66683750  0.07286357  0.43470302
   0.88495789  0.35474317  0.04979178
   0.97891775  0.26078330  0.17809552
   0.76079737  0.47890369  0.56300676
   0.53023342  0.37768264  0.47786825
   0.93627354  0.47164251  0.34956450
   0.74835381  0.15956225  0.09295701
   0.84231368  0.06560239  0.22126075
   0.58013882  0.49134725  0.09295701
   0.67409868  0.39738738  0.22126075
   0.76805855  0.30342751  0.34956450
   0.86201842  0.20946764  0.47786825
   0.07287763  0.66682343  0.30639927
   0.16683750  0.57286357  0.43470302
   0.38495789  0.85474317  0.04979178
   0.47891775  0.76078330  0.17809552
   0.26079737  0.97890369  0.56300676
   0.03023342  0.87768264  0.47786825
   0.43627354  0.97164251  0.34956450
   0.24835381  0.65956225  0.09295701
   0.34231368  0.56560239  0.22126075
   0.08013882  0.99134725  0.09295701
   0.17409868  0.89738738  0.22126075
   0.26805855  0.80342751  0.34956450
   0.36201842  0.70946764  0.47786825
   0.57287763  0.66682343  0.30639927
   0.66683750  0.57286357  0.43470302
   0.88495789  0.85474317  0.04979178
   0.97891775  0.76078330  0.17809552
   0.76079737  0.97890369  0.56300676
   0.53023342  0.87768264  0.47786825
   0.93627354  0.97164251  0.34956450
   0.74835381  0.65956225  0.09295701
   0.84231368  0.56560239  0.22126075
   0.58013882  0.99134725  0.09295701
   0.67409868  0.89738738  0.22126075
   0.76805855  0.80342751  0.34956450
   0.86201842  0.70946764  0.47786825
 
 position of ions in cartesian coordinates  (Angst):
   2.62559809  6.70560409  6.64784006
   3.57109934  6.12193470  9.58389802
   1.68009683  1.66104211  3.71178210
   0.56471218  0.86257007 11.74423185
   1.81411718  5.71952858  0.00000000
   2.75961844  5.13585919  2.93605796
   3.70511969  4.55218982  5.87211592
   4.65062095  3.96852044  8.80817388
   0.00303839  4.18332309  5.87211592
   0.94853965  3.59965372  8.80817388
   1.89404090  3.01598433 11.74423185
   4.08894716  7.28927347  2.93605796
   3.14344589  2.24471149  0.00000000
   7.65700825  9.22788515  6.64784006
   8.60250951  8.64421576  9.58389802
   5.76600574  4.76699255  0.77572413
   6.71150699  4.18332317  3.71178210
   5.59612235  3.38485113 11.74423185
   6.84552735  8.24180964  0.00000000
   7.79102861  7.65814025  2.93605796
   8.73652986  7.07447088  5.87211592
   9.68203112  6.49080150  8.80817388
   5.03444856  6.70560415  5.87211592
   5.97994982  6.12193478  8.80817388
   6.92545107  5.53826539 11.74423185
   9.12035732  9.81155453  2.93605796
   2.62559809 12.33383560  6.64784006
   3.57109934 11.75016622  9.58389802
   0.73459558  7.87294300  0.77572413
   1.68009683  7.28927363  3.71178210
   0.56471218  6.49080159 11.74423185
   2.75961844 10.76409071  2.93605796
   3.70511969 10.18042134  5.87211592
   4.65062095  9.59675196  8.80817388
   0.00303839  9.81155461  5.87211592
   0.94853965  9.22788524  8.80817388
   1.89404090  8.64421585 11.74423185
   4.08894716 12.91750499  2.93605796
   3.14344589  7.87294301  0.00000000
   7.65700825 14.85611667  6.64784006
   8.60250951 14.27244728  9.58389802
   5.76600574 10.39522407  0.77572413
   6.71150699  9.81155469  3.71178210
   5.59612235  9.01308265 11.74423185
   7.79102861 13.28637177  2.93605796
   8.73652986 12.70270240  5.87211592
   9.68203112 12.11903302  8.80817388
   5.03444856 12.33383567  5.87211592
   5.97994982 11.75016630  8.80817388
   6.92545107 11.16649691 11.74423185
   9.12035732 15.43978605  2.93605796
   8.17485606 10.39522407  0.00000000
   0.73335455  2.24547759  7.01153347
   1.67885581  1.66180820  9.94759143
   3.87376206  5.93509734  1.13941754
   4.81926331  5.35142795  4.07547551
   2.62435706  6.70637018 12.88364939
   0.30423352  4.40388507 10.93536942
   4.39014228  7.50983544  7.99931146
   2.49913978  3.04894285  2.12719553
   3.44464103  2.46527346  5.06325349
   0.80642251  5.93509734  2.12719553
   1.75192376  5.35142795  5.06325349
   2.69742501  4.76775857  7.99931146
   3.64292627  4.18408919 10.93536942
   5.76476472  4.76775865  7.01153347
   6.71026598  4.18408926  9.94759143
   8.90517223  8.45737840  1.13941754
   9.85067348  7.87370901  4.07547551
   7.65576723  9.22865124 12.88364939
   5.33564369  6.92616613 10.93536942
   9.42155245 10.03211650  7.99931146
   7.53054995  5.57122391  2.12719553
   8.47605120  4.98755452  5.06325349
   5.83783268  8.45737840  2.12719553
   6.78333393  7.87370901  5.06325349
   7.72883518  7.29003963  7.99931146
   8.67433644  6.70637025 10.93536942
   0.73335455  7.87370911  7.01153347
   1.67885581  7.29003972  9.94759143
   3.87376206 11.56332886  1.13941754
   4.81926331 10.97965947  4.07547551
   2.62435706 12.33460169 12.88364939
   0.30423352 10.03211659 10.93536942
   4.39014228 13.13806696  7.99931146
   2.49913978  8.67717437  2.12719553
   3.44464103  8.09350498  5.06325349
   0.80642251 11.56332886  2.12719553
   1.75192376 10.97965947  5.06325349
   2.69742501 10.39599009  7.99931146
   3.64292627  9.81232071 10.93536942
   5.76476472 10.39599017  7.01153347
   6.71026598  9.81232078  9.94759143
   8.90517223 14.08560992  1.13941754
   9.85067348 13.50194053  4.07547551
   7.65576723 14.85688276 12.88364939
   5.33564369 12.55439765 10.93536942
   9.42155245 15.66034802  7.99931146
   7.53054995 11.19945543  2.12719553
   8.47605120 10.61578604  5.06325349
   5.83783268 14.08560992  2.12719553
   6.78333393 13.50194053  5.06325349
   7.72883518 12.91827115  7.99931146
   8.67433644 12.33460177 10.93536942
 


--------------------------------------------------------------------------------------------------------


 use parallel FFT for orbitals z direction half grid
 k-point   1 :   0.0000 0.0000 0.0000  plane waves:   28140

 maximum and minimum number of plane-waves per node :      4692     4687

 maximum number of plane-waves:     28140
 maximum index in each direction: 
   IXMAX=   19   IYMAX=   19   IZMAX=   39
   IXMIN=  -19   IYMIN=  -19   IZMIN=    0


 real space projection operators:
  total allocation   :      16764.98 KBytes
  max/ min on nodes  :       2844.09       2744.00


 parallel 3D FFT for wavefunctions:
    minimum data exchange during FFTs selected (reduces bandwidth)
 parallel 3D FFT for charge:
    minimum data exchange during FFTs selected (reduces bandwidth)


 total amount of memory used by VASP MPI-rank0    52337. kBytes
=======================================================================

   base      :      30000. kBytes
   nonlr-proj:       3436. kBytes
   fftplans  :       4391. kBytes
   grid      :       7756. kBytes
   one-center:        139. kBytes
   wavefun   :       6615. kBytes
 
     INWAV:  cpu time    0.0000: real time    0.0000
 Broyden mixing: mesh for mixing (old mesh)
   NGX = 39   NGY = 39   NGZ = 79
  (NGX  =120   NGY  =120   NGZ  =240)
  gives a total of 120159 points

 initial charge density was supplied:
 charge density of overlapping atoms calculated
 number of electron    1144.0000000 magnetization 
 keeping initial charge density in first step


--------------------------------------------------------------------------------------------------------


 Maximum index for non-local projection operator          316
 Maximum index for augmentation-charges          321 (set IRDMAX)


--------------------------------------------------------------------------------------------------------


 First call to EWALD:  gamma=   0.129
 Maximum number of real-space cells 4x 4x 2
 Maximum number of reciprocal cells 2x 2x 4

    FEWALD:  cpu time    0.0130: real time    0.0130


--------------------------------------- Iteration      1(   1)  ---------------------------------------


    POTLOK:  cpu time    0.0883: real time    0.0889
    SETDIJ:  cpu time    0.0087: real time    0.0106
     EDDAV:  cpu time    5.6937: real time    5.7090
       DOS:  cpu time    0.0036: real time    0.0036
    --------------------------------------------
      LOOP:  cpu time    5.7943: real time    5.8120

 eigenvalue-minimisations  :  1664
 total energy-change (2. order) : 0.1464791E+05  (-0.7354122E+05)
 number of electron    1144.0000000 magnetization 
 augmentation part     1144.0000000 magnetization 

 Free energy of the ion-electron system (eV)
  ---------------------------------------------------
  alpha Z        PSCENC =      2994.23548884
  Ewald energy   TEWEN  =    265478.81929851
  -Hartree energ DENC   =   -443520.05129441
  -exchange      EXHF   =         0.00000000
  -V(xc)+E(xc)   XCENC  =      5277.25588743
  PAW double counting   =    162831.54814933  -169926.62828172
  entropy T*S    EENTRO =        -0.49300229
  eigenvalues    EBANDS =     -4934.98292399
  atomic energy  EATOM  =    196448.20729987
  Solvation  Ediel_sol  =         0.00000000
  ---------------------------------------------------
  free energy    TOTEN  =     14647.91062158 eV

  energy without entropy =    14648.40362386  energy(sigma->0) =    14648.15712272


--------------------------------------------------------------------------------------------------------




--------------------------------------- Iteration      1(   2)  ---------------------------------------


     EDDAV:  cpu time    4.7691: real time    4.7863
       DOS:  cpu time    0.0030: real time    0.0030
    --------------------------------------------
      LOOP:  cpu time    4.7721: real time    4.7893

 eigenvalue-minimisations  :  1432
 total energy-change (2. order) :-0.1363471E+05  (-0.1317536E+05)
 number of electron    1144.0000000 magnetization 
 augmentation part     1144.0000000 magnetization 

 Free energy of the ion-electron system (eV)
  ---------------------------------------------------
  alpha Z        PSCENC =      2994.23548884
  Ewald energy   TEWEN  =    265478.81929851
  -Hartree energ DENC   =   -443520.05129441
  -exchange      EXHF   =         0.00000000
  -V(xc)+E(xc)   XCENC  =      5277.25588743
  PAW double counting   =    162831.54814933  -169926.62828172
  entropy T*S    EENTRO =        -1.10717281
  eigenvalues    EBANDS =    -18569.07749890
  atomic energy  EATOM  =    196448.20729987
  Solvation  Ediel_sol  =         0.00000000
  ---------------------------------------------------
  free energy    TOTEN  =      1013.20187613 eV

  energy without entropy =     1014.30904895  energy(sigma->0) =     1013.75546254


--------------------------------------------------------------------------------------------------------




--------------------------------------- Iteration      1(   3)  ---------------------------------------


     EDDAV:  cpu time    5.1539: real time    5.1686
       DOS:  cpu time    0.0036: real time    0.0036
    --------------------------------------------
      LOOP:  cpu time    5.1575: real time    5.1722

 eigenvalue-minimisations  :  1592
 total energy-change (2. order) :-0.1488890E+04  (-0.1391779E+04)
 number of electron    1144.0000000 magnetization 
 augmentation part     1144.0000000 magnetization 

 Free energy of the ion-electron system (eV)
  ---------------------------------------------------
  alpha Z        PSCENC =      2994.23548884
  Ewald energy   TEWEN  =    265478.81929851
  -Hartree energ DENC   =   -443520.05129441
  -exchange      EXHF   =         0.00000000
  -V(xc)+E(xc)   XCENC  =      5277.25588743
  PAW double counting   =    162831.54814933  -169926.62828172
  entropy T*S    EENTRO =        -1.50731156
  eigenvalues    EBANDS =    -20057.56743294
  atomic energy  EATOM  =    196448.20729987
  Solvation  Ediel_sol  =         0.00000000
  ---------------------------------------------------
  free energy    TOTEN  =      -475.68819665 eV

  energy without entropy =     -474.18088509  energy(sigma->0) =     -474.93454087


--------------------------------------------------------------------------------------------------------




--------------------------------------- Iteration      1(   4)  ---------------------------------------


     EDDAV:  cpu time    5.3518: real time    5.3666
       DOS:  cpu time    0.0031: real time    0.0031
    --------------------------------------------
      LOOP:  cpu time    5.3549: real time    5.3697

 eigenvalue-minimisations  :  1656
 total energy-change (2. order) :-0.1089051E+03  (-0.1071590E+03)
 number of electron    1144.0000000 magnetization 
 augmentation part     1144.0000000 magnetization 

 Free energy of the ion-electron system (eV)
  ---------------------------------------------------
  alpha Z        PSCENC =      2994.23548884
  Ewald energy   TEWEN  =    265478.81929851
  -Hartree energ DENC   =   -443520.05129441
  -exchange      EXHF   =         0.00000000
  -V(xc)+E(xc)   XCENC  =      5277.25588743
  PAW double counting   =    162831.54814933  -169926.62828172
  entropy T*S    EENTRO =        -1.71904298
  eigenvalues    EBANDS =    -20166.26083951
  atomic energy  EATOM  =    196448.20729987
  Solvation  Ediel_sol  =         0.00000000
  ---------------------------------------------------
  free energy    TOTEN  =      -584.59333465 eV

  energy without entropy =     -582.87429167  energy(sigma->0) =     -583.73381316


--------------------------------------------------------------------------------------------------------




--------------------------------------- Iteration      1(   5)  ---------------------------------------


     EDDAV:  cpu time    5.4826: real time    5.4956
       DOS:  cpu time    0.0050: real time    0.0050
    CHARGE:  cpu time    0.0892: real time    0.0894
    MIXING:  cpu time    0.0042: real time    0.0045
    --------------------------------------------
      LOOP:  cpu time    5.5811: real time    5.5945

 eigenvalue-minimisations  :  1720
 total energy-change (2. order) :-0.3690644E+01  (-0.3682923E+01)
 number of electron    1143.9999510 magnetization 
 augmentation part      413.4489185 magnetization 

 Broyden mixing:
  rms(total) = 0.99445E+01    rms(broyden)= 0.99247E+01
  rms(prec ) = 0.10348E+02
  weight for this iteration     100.00

 Free energy of the ion-electron system (eV)
  ---------------------------------------------------
  alpha Z        PSCENC =      2994.23548884
  Ewald energy   TEWEN  =    265478.81929851
  -Hartree energ DENC   =   -443520.05129441
  -exchange      EXHF   =         0.00000000
  -V(xc)+E(xc)   XCENC  =      5277.25588743
  PAW double counting   =    162831.54814933  -169926.62828172
  entropy T*S    EENTRO =        -1.72649768
  eigenvalues    EBANDS =    -20169.94402905
  atomic energy  EATOM  =    196448.20729987
  Solvation  Ediel_sol  =         0.00000000
  ---------------------------------------------------
  free energy    TOTEN  =      -588.28397888 eV

  energy without entropy =     -586.55748120  energy(sigma->0) =     -587.42073004


--------------------------------------------------------------------------------------------------------




--------------------------------------- Iteration      1(   6)  ---------------------------------------


    POTLOK:  cpu time    0.0692: real time    0.0704
    SETDIJ:  cpu time    0.0079: real time    0.0098
     EDDAV:  cpu time    5.6673: real time    5.6824
       DOS:  cpu time    0.0010: real time    0.0010
    CHARGE:  cpu time    0.0870: real time    0.0872
    MIXING:  cpu time    0.0038: real time    0.0038
    --------------------------------------------
      LOOP:  cpu time    5.8361: real time    5.8546

 eigenvalue-minimisations  :  1680
 total energy-change (2. order) :-0.1255162E+03  (-0.1414917E+03)
 number of electron    1143.9999316 magnetization 
 augmentation part      508.1484445 magnetization 

 Broyden mixing:
  rms(total) = 0.19338E+02    rms(broyden)= 0.19332E+02
  rms(prec ) = 0.20208E+02
  weight for this iteration     100.00

 eigenvalues of (default mixing * dielectric matrix)
  average eigenvalue GAMMA=   0.2186
  0.2186

 Free energy of the ion-electron system (eV)
  ---------------------------------------------------
  alpha Z        PSCENC =      2994.23548884
  Ewald energy   TEWEN  =    265478.81929851
  -Hartree energ DENC   =   -439451.77608853
  -exchange      EXHF   =         0.00000000
  -V(xc)+E(xc)   XCENC  =      5165.90734077
  PAW double counting   =    165543.70846989  -172292.27600478
  entropy T*S    EENTRO =        -1.35808628
  eigenvalues    EBANDS =    -24599.26787815
  atomic energy  EATOM  =    196448.20729987
  Solvation  Ediel_sol  =         0.00000000
  ---------------------------------------------------
  free energy    TOTEN  =      -713.80015986 eV

  energy without entropy =     -712.44207357  energy(sigma->0) =     -713.12111671


--------------------------------------------------------------------------------------------------------




--------------------------------------- Iteration      1(   7)  ---------------------------------------


    POTLOK:  cpu time    0.0705: real time    0.0715
    SETDIJ:  cpu time    0.0097: real time    0.0097
     EDDAV:  cpu time    5.4575: real time    5.4704
       DOS:  cpu time    0.0011: real time    0.0011
    CHARGE:  cpu time    0.0906: real time    0.0908
    MIXING:  cpu time    0.0031: real time    0.0031
    --------------------------------------------
      LOOP:  cpu time    5.6325: real time    5.6467

 eigenvalue-minimisations  :  1608
 total energy-change (2. order) : 0.1587739E+03  (-0.2808186E+02)
 number of electron    1143.9999395 magnetization 
 augmentation part      480.1746204 magnetization 

 Broyden mixing:
  rms(total) = 0.85345E+01    rms(broyden)= 0.85322E+01
  rms(prec ) = 0.90820E+01
  weight for this iteration     100.00

 eigenvalues of (default mixing * dielectric matrix)
  average eigenvalue GAMMA=   0.4285
  0.4285  0.4285

 Free energy of the ion-electron system (eV)
  ---------------------------------------------------
  alpha Z        PSCENC =      2994.23548884
  Ewald energy   TEWEN  =    265478.81929851
  -Hartree energ DENC   =   -441368.86624578
  -exchange      EXHF   =         0.00000000
  -V(xc)+E(xc)   XCENC  =      5204.71209145
  PAW double counting   =    171154.45057952  -178098.83407485
  entropy T*S    EENTRO =        -1.45612596
  eigenvalues    EBANDS =    -22366.29453614
  atomic energy  EATOM  =    196448.20729987
  Solvation  Ediel_sol  =         0.00000000
  ---------------------------------------------------
  free energy    TOTEN  =      -555.02622453 eV

  energy without entropy =     -553.57009857  energy(sigma->0) =     -554.29816155


--------------------------------------------------------------------------------------------------------




--------------------------------------- Iteration      1(   8)  ---------------------------------------


    POTLOK:  cpu time    0.0729: real time    0.0731
    SETDIJ:  cpu time    0.0073: real time    0.0073
     EDDAV:  cpu time    5.9028: real time    5.9167
       DOS:  cpu time    0.0010: real time    0.0010
    CHARGE:  cpu time    0.0832: real time    0.0834
    MIXING:  cpu time    0.0032: real time    0.0032
    --------------------------------------------
      LOOP:  cpu time    6.0704: real time    6.0847

 eigenvalue-minimisations  :  1776
 total energy-change (2. order) :-0.2162941E+03  (-0.1904570E+02)
 number of electron    1143.9999212 magnetization 
 augmentation part      447.2011259 magnetization 

 Broyden mixing:
  rms(total) = 0.22183E+02    rms(broyden)= 0.22180E+02
  rms(prec ) = 0.27226E+02
  weight for this iteration     100.00

 eigenvalues of (default mixing * dielectric matrix)
  average eigenvalue GAMMA=   0.3674
  0.5056  0.5056  0.0910

 Free energy of the ion-electron system (eV)
  ---------------------------------------------------
  alpha Z        PSCENC =      2994.23548884
  Ewald energy   TEWEN  =    265478.81929851
  -Hartree energ DENC   =   -441461.20658186
  -exchange      EXHF   =         0.00000000
  -V(xc)+E(xc)   XCENC  =      5231.29904193
  PAW double counting   =    176899.59693439  -183979.16419075
  entropy T*S    EENTRO =        -0.82768936
  eigenvalues    EBANDS =    -22382.27988185
  atomic energy  EATOM  =    196448.20729987
  Solvation  Ediel_sol  =         0.00000000
  ---------------------------------------------------
  free energy    TOTEN  =      -771.32028028 eV

  energy without entropy =     -770.49259092  energy(sigma->0) =     -770.90643560


--------------------------------------------------------------------------------------------------------




--------------------------------------- Iteration      1(   9)  ---------------------------------------


    POTLOK:  cpu time    0.0702: real time    0.0704
    SETDIJ:  cpu time    0.0074: real time    0.0074
     EDDAV:  cpu time    5.8441: real time    5.8588
       DOS:  cpu time    0.0028: real time    0.0028
    CHARGE:  cpu time    0.0899: real time    0.0901
    MIXING:  cpu time    0.0032: real time    0.0032
    --------------------------------------------
      LOOP:  cpu time    6.0176: real time    6.0327

 eigenvalue-minimisations  :  1840
 total energy-change (2. order) : 0.1738386E+03  (-0.2335422E+02)
 number of electron    1143.9999412 magnetization 
 augmentation part      446.5749094 magnetization 

 Broyden mixing:
  rms(total) = 0.15365E+02    rms(broyden)= 0.15361E+02
  rms(prec ) = 0.17418E+02
  weight for this iteration     100.00

 eigenvalues of (default mixing * dielectric matrix)
  average eigenvalue GAMMA=   0.3410
  0.6699  0.4761  0.1090  0.1090

 Free energy of the ion-electron system (eV)
  ---------------------------------------------------
  alpha Z        PSCENC =      2994.23548884
  Ewald energy   TEWEN  =    265478.81929851
  -Hartree energ DENC   =   -441797.51384838
  -exchange      EXHF   =         0.00000000
  -V(xc)+E(xc)   XCENC  =      5234.11286747
  PAW double counting   =    179990.13138050  -187110.24101389
  entropy T*S    EENTRO =        -1.66646772
  eigenvalues    EBANDS =    -21833.56669821
  atomic energy  EATOM  =    196448.20729987
  Solvation  Ediel_sol  =         0.00000000
  ---------------------------------------------------
  free energy    TOTEN  =      -597.48169301 eV

  energy without entropy =     -595.81522529  energy(sigma->0) =     -596.64845915


--------------------------------------------------------------------------------------------------------




--------------------------------------- Iteration      1(  10)  ---------------------------------------


    POTLOK:  cpu time    0.0684: real time    0.0707
    SETDIJ:  cpu time    0.0097: real time    0.0116
     EDDAV:  cpu time    5.9323: real time    5.9473
       DOS:  cpu time    0.0012: real time    0.0012
    CHARGE:  cpu time    0.0866: real time    0.0868
    MIXING:  cpu time    0.0031: real time    0.0031
    --------------------------------------------
      LOOP:  cpu time    6.1013: real time    6.1207

 eigenvalue-minimisations  :  1880
 total energy-change (2. order) : 0.3207479E+02  (-0.1159140E+02)
 number of electron    1143.9999505 magnetization 
 augmentation part      452.9767577 magnetization 

 Broyden mixing:
  rms(total) = 0.66862E+01    rms(broyden)= 0.66776E+01
  rms(prec ) = 0.78035E+01
  weight for this iteration     100.00

 eigenvalues of (default mixing * dielectric matrix)
  average eigenvalue GAMMA=   0.4123
  1.1168  0.3742  0.3742  0.0981  0.0981

 Free energy of the ion-electron system (eV)
  ---------------------------------------------------
  alpha Z        PSCENC =      2994.23548884
  Ewald energy   TEWEN  =    265478.81929851
  -Hartree energ DENC   =   -442059.37730938
  -exchange      EXHF   =         0.00000000
  -V(xc)+E(xc)   XCENC  =      5232.10458030
  PAW double counting   =    182056.87025114  -189192.51294344
  entropy T*S    EENTRO =        -1.21608151
  eigenvalues    EBANDS =    -21522.53748535
  atomic energy  EATOM  =    196448.20729987
  Solvation  Ediel_sol  =         0.00000000
  ---------------------------------------------------
  free energy    TOTEN  =      -565.40690101 eV

  energy without entropy =     -564.19081950  energy(sigma->0) =     -564.79886026


--------------------------------------------------------------------------------------------------------




--------------------------------------- Iteration      1(  11)  ---------------------------------------


    POTLOK:  cpu time    0.0692: real time    0.0702
    SETDIJ:  cpu time    0.0076: real time    0.0104
     EDDAV:  cpu time    6.0308: real time    6.0450
       DOS:  cpu time    0.0012: real time    0.0012
    CHARGE:  cpu time    0.0840: real time    0.0842
    MIXING:  cpu time    0.0032: real time    0.0033
    --------------------------------------------
      LOOP:  cpu time    6.1959: real time    6.2142

 eigenvalue-minimisations  :  1880
 total energy-change (2. order) :-0.2783556E+02  (-0.6434965E+01)
 number of electron    1143.9999216 magnetization 
 augmentation part      440.7852577 magnetization 

 Broyden mixing:
  rms(total) = 0.14174E+02    rms(broyden)= 0.14169E+02
  rms(prec ) = 0.17533E+02
  weight for this iteration     100.00

 eigenvalues of (default mixing * dielectric matrix)
  average eigenvalue GAMMA=   0.4192
  1.4604  0.3868  0.3868  0.1059  0.1059  0.0696

 Free energy of the ion-electron system (eV)
  ---------------------------------------------------
  alpha Z        PSCENC =      2994.23548884
  Ewald energy   TEWEN  =    265478.81929851
  -Hartree energ DENC   =   -442197.85104568
  -exchange      EXHF   =         0.00000000
  -V(xc)+E(xc)   XCENC  =      5234.19624281
  PAW double counting   =    185110.74665778  -192283.71735232
  entropy T*S    EENTRO =        -1.37391360
  eigenvalues    EBANDS =    -21376.50513991
  atomic energy  EATOM  =    196448.20729987
  Solvation  Ediel_sol  =         0.00000000
  ---------------------------------------------------
  free energy    TOTEN  =      -593.24246369 eV

  energy without entropy =     -591.86855009  energy(sigma->0) =     -592.55550689


--------------------------------------------------------------------------------------------------------




--------------------------------------- Iteration      1(  12)  ---------------------------------------


    POTLOK:  cpu time    0.0680: real time    0.0681
    SETDIJ:  cpu time    0.0091: real time    0.0091
     EDDAV:  cpu time    5.9998: real time    6.0139
       DOS:  cpu time    0.0019: real time    0.0019
    CHARGE:  cpu time    0.0832: real time    0.0834
    MIXING:  cpu time    0.0030: real time    0.0030
    --------------------------------------------
      LOOP:  cpu time    6.1650: real time    6.1795

 eigenvalue-minimisations  :  1872
 total energy-change (2. order) : 0.3947053E+02  (-0.6091558E+01)
 number of electron    1143.9999477 magnetization 
 augmentation part      447.0524822 magnetization 

 Broyden mixing:
  rms(total) = 0.78725E+01    rms(broyden)= 0.78686E+01
  rms(prec ) = 0.93593E+01
  weight for this iteration     100.00

 eigenvalues of (default mixing * dielectric matrix)
  average eigenvalue GAMMA=   0.4429
  1.8495  0.3934  0.3934  0.1462  0.1462  0.0931  0.0788

 Free energy of the ion-electron system (eV)
  ---------------------------------------------------
  alpha Z        PSCENC =      2994.23548884
  Ewald energy   TEWEN  =    265478.81929851
  -Hartree energ DENC   =   -442342.20928774
  -exchange      EXHF   =         0.00000000
  -V(xc)+E(xc)   XCENC  =      5230.83081156
  PAW double counting   =    187659.10460294  -194848.60789098
  entropy T*S    EENTRO =        -1.55276178
  eigenvalues    EBANDS =    -21172.59949690
  atomic energy  EATOM  =    196448.20729987
  Solvation  Ediel_sol  =         0.00000000
  ---------------------------------------------------
  free energy    TOTEN  =      -553.77193568 eV

  energy without entropy =     -552.21917389  energy(sigma->0) =     -552.99555478


--------------------------------------------------------------------------------------------------------




--------------------------------------- Iteration      1(  13)  ---------------------------------------


    POTLOK:  cpu time    0.0656: real time    0.0657
    SETDIJ:  cpu time    0.0088: real time    0.0088
     EDDAV:  cpu time    5.9935: real time    6.0076
       DOS:  cpu time    0.0010: real time    0.0010
    CHARGE:  cpu time    0.0854: real time    0.0856
    MIXING:  cpu time    0.0035: real time    0.0035
    --------------------------------------------
      LOOP:  cpu time    6.1578: real time    6.1723

 eigenvalue-minimisations  :  1872
 total energy-change (2. order) : 0.7004762E+01  (-0.6039444E+01)
 number of electron    1143.9999530 magnetization 
 augmentation part      451.4140015 magnetization 

 Broyden mixing:
  rms(total) = 0.66339E+01    rms(broyden)= 0.66298E+01
  rms(prec ) = 0.73739E+01
  weight for this iteration     100.00

 eigenvalues of (default mixing * dielectric matrix)
  average eigenvalue GAMMA=   0.4821
  2.2113  0.4384  0.4384  0.3502  0.1156  0.1156  0.1090  0.0780

 Free energy of the ion-electron system (eV)
  ---------------------------------------------------
  alpha Z        PSCENC =      2994.23548884
  Ewald energy   TEWEN  =    265478.81929851
  -Hartree energ DENC   =   -442116.10433209
  -exchange      EXHF   =         0.00000000
  -V(xc)+E(xc)   XCENC  =      5227.75336516
  PAW double counting   =    190773.21382223  -197986.26804848
  entropy T*S    EENTRO =        -1.59067275
  eigenvalues    EBANDS =    -21365.03339498
  atomic energy  EATOM  =    196448.20729987
  Solvation  Ediel_sol  =         0.00000000
  ---------------------------------------------------
  free energy    TOTEN  =      -546.76717369 eV

  energy without entropy =     -545.17650094  energy(sigma->0) =     -545.97183732


--------------------------------------------------------------------------------------------------------




--------------------------------------- Iteration      1(  14)  ---------------------------------------


    POTLOK:  cpu time    0.0657: real time    0.0658
    SETDIJ:  cpu time    0.0074: real time    0.0074
     EDDAV:  cpu time    5.8372: real time    5.8510
       DOS:  cpu time    0.0021: real time    0.0021
    CHARGE:  cpu time    0.0876: real time    0.0878
    MIXING:  cpu time    0.0039: real time    0.0039
    --------------------------------------------
      LOOP:  cpu time    6.0038: real time    6.0180

 eigenvalue-minimisations  :  1856
 total energy-change (2. order) : 0.7693695E+01  (-0.2793713E+01)
 number of electron    1143.9999457 magnetization 
 augmentation part      456.9525937 magnetization 

 Broyden mixing:
  rms(total) = 0.67184E+01    rms(broyden)= 0.67147E+01
  rms(prec ) = 0.75577E+01
  weight for this iteration     100.00

 eigenvalues of (default mixing * dielectric matrix)
  average eigenvalue GAMMA=   0.4429
  2.2209  0.4085  0.4085  0.3569  0.1273  0.1273  0.1515  0.1083  0.0770

 Free energy of the ion-electron system (eV)
  ---------------------------------------------------
  alpha Z        PSCENC =      2994.23548884
  Ewald energy   TEWEN  =    265478.81929851
  -Hartree energ DENC   =   -441890.40302655
  -exchange      EXHF   =         0.00000000
  -V(xc)+E(xc)   XCENC  =      5226.90340528
  PAW double counting   =    193373.47965705  -200611.93834614
  entropy T*S    EENTRO =        -1.72545539
  eigenvalues    EBANDS =    -21556.65180010
  atomic energy  EATOM  =    196448.20729987
  Solvation  Ediel_sol  =         0.00000000
  ---------------------------------------------------
  free energy    TOTEN  =      -539.07347863 eV

  energy without entropy =     -537.34802324  energy(sigma->0) =     -538.21075093


--------------------------------------------------------------------------------------------------------




--------------------------------------- Iteration      1(  15)  ---------------------------------------


    POTLOK:  cpu time    0.0686: real time    0.0698
    SETDIJ:  cpu time    0.0095: real time    0.0116
     EDDAV:  cpu time    5.7465: real time    5.7612
       DOS:  cpu time    0.0009: real time    0.0009
    CHARGE:  cpu time    0.0834: real time    0.0836
    MIXING:  cpu time    0.0036: real time    0.0036
    --------------------------------------------
      LOOP:  cpu time    5.9125: real time    5.9307

 eigenvalue-minimisations  :  1848
 total energy-change (2. order) : 0.8813477E+01  (-0.2610108E+01)
 number of electron    1143.9999491 magnetization 
 augmentation part      456.2273420 magnetization 

 Broyden mixing:
  rms(total) = 0.44965E+01    rms(broyden)= 0.44943E+01
  rms(prec ) = 0.49446E+01
  weight for this iteration     100.00

 eigenvalues of (default mixing * dielectric matrix)
  average eigenvalue GAMMA=   0.4126
  2.1441  0.3774  0.3774  0.3486  0.3486  0.1284  0.1284  0.0979  0.0979  0.0770

 Free energy of the ion-electron system (eV)
  ---------------------------------------------------
  alpha Z        PSCENC =      2994.23548884
  Ewald energy   TEWEN  =    265478.81929851
  -Hartree energ DENC   =   -441989.54336265
  -exchange      EXHF   =         0.00000000
  -V(xc)+E(xc)   XCENC  =      5227.62898710
  PAW double counting   =    193406.17744180  -200646.14061139
  entropy T*S    EENTRO =        -1.69792782
  eigenvalues    EBANDS =    -21447.94661634
  atomic energy  EATOM  =    196448.20729987
  Solvation  Ediel_sol  =         0.00000000
  ---------------------------------------------------
  free energy    TOTEN  =      -530.26000208 eV

  energy without entropy =     -528.56207426  energy(sigma->0) =     -529.41103817


--------------------------------------------------------------------------------------------------------




--------------------------------------- Iteration      1(  16)  ---------------------------------------


    POTLOK:  cpu time    0.0671: real time    0.0694
    SETDIJ:  cpu time    0.0077: real time    0.0099
     EDDAV:  cpu time    6.0931: real time    6.1109
       DOS:  cpu time    0.0021: real time    0.0021
    CHARGE:  cpu time    0.0878: real time    0.0880
    MIXING:  cpu time    0.0042: real time    0.0042
    --------------------------------------------
      LOOP:  cpu time    6.2621: real time    6.2845

 eigenvalue-minimisations  :  1928
 total energy-change (2. order) : 0.3538847E+01  (-0.2055343E+01)
 number of electron    1143.9999492 magnetization 
 augmentation part      455.5359078 magnetization 

 Broyden mixing:
  rms(total) = 0.36735E+01    rms(broyden)= 0.36719E+01
  rms(prec ) = 0.41937E+01
  weight for this iteration     100.00

 eigenvalues of (default mixing * dielectric matrix)
  average eigenvalue GAMMA=   0.3968
  1.9622  0.4940  0.4940  0.4233  0.2603  0.1584  0.1584  0.1151  0.1151  0.0768
  0.1077

 Free energy of the ion-electron system (eV)
  ---------------------------------------------------
  alpha Z        PSCENC =      2994.23548884
  Ewald energy   TEWEN  =    265478.81929851
  -Hartree energ DENC   =   -442072.57147936
  -exchange      EXHF   =         0.00000000
  -V(xc)+E(xc)   XCENC  =      5228.73905992
  PAW double counting   =    193038.31079747  -200277.47963787
  entropy T*S    EENTRO =        -1.44269114
  eigenvalues    EBANDS =    -21363.53929144
  atomic energy  EATOM  =    196448.20729987
  Solvation  Ediel_sol  =         0.00000000
  ---------------------------------------------------
  free energy    TOTEN  =      -526.72115519 eV

  energy without entropy =     -525.27846405  energy(sigma->0) =     -525.99980962


--------------------------------------------------------------------------------------------------------




--------------------------------------- Iteration      1(  17)  ---------------------------------------


    POTLOK:  cpu time    0.0695: real time    0.0697
    SETDIJ:  cpu time    0.0079: real time    0.0098
     EDDAV:  cpu time    5.7462: real time    5.7599
       DOS:  cpu time    0.0017: real time    0.0017
    CHARGE:  cpu time    0.0863: real time    0.0865
    MIXING:  cpu time    0.0035: real time    0.0035
    --------------------------------------------
      LOOP:  cpu time    5.9150: real time    5.9310

 eigenvalue-minimisations  :  1800
 total energy-change (2. order) : 0.4001260E+01  (-0.5324961E+00)
 number of electron    1143.9999499 magnetization 
 augmentation part      453.9274096 magnetization 

 Broyden mixing:
  rms(total) = 0.31265E+01    rms(broyden)= 0.31261E+01
  rms(prec ) = 0.36813E+01
  weight for this iteration     100.00

 eigenvalues of (default mixing * dielectric matrix)
  average eigenvalue GAMMA=   0.4078
  1.8856  0.6182  0.6182  0.3598  0.3598  0.3501  0.0769  0.1333  0.1333  0.1211
  0.1211  0.1163

 Free energy of the ion-electron system (eV)
  ---------------------------------------------------
  alpha Z        PSCENC =      2994.23548884
  Ewald energy   TEWEN  =    265478.81929851
  -Hartree energ DENC   =   -442129.53871963
  -exchange      EXHF   =         0.00000000
  -V(xc)+E(xc)   XCENC  =      5231.34623555
  PAW double counting   =    192221.70417479  -199457.86609490
  entropy T*S    EENTRO =        -1.47295124
  eigenvalues    EBANDS =    -21308.15462674
  atomic energy  EATOM  =    196448.20729987
  Solvation  Ediel_sol  =         0.00000000
  ---------------------------------------------------
  free energy    TOTEN  =      -522.71989494 eV

  energy without entropy =     -521.24694370  energy(sigma->0) =     -521.98341932


--------------------------------------------------------------------------------------------------------




--------------------------------------- Iteration      1(  18)  ---------------------------------------


    POTLOK:  cpu time    0.0686: real time    0.0690
    SETDIJ:  cpu time    0.0074: real time    0.0074
     EDDAV:  cpu time    5.7849: real time    5.7987
       DOS:  cpu time    0.0024: real time    0.0024
    CHARGE:  cpu time    0.0859: real time    0.0861
    MIXING:  cpu time    0.0040: real time    0.0040
    --------------------------------------------
      LOOP:  cpu time    5.9532: real time    5.9675

 eigenvalue-minimisations  :  1824
 total energy-change (2. order) : 0.1279112E+01  (-0.3209775E+00)
 number of electron    1143.9999459 magnetization 
 augmentation part      452.8358041 magnetization 

 Broyden mixing:
[...]
   -.154E+03 -.280E+03 -.514E+04   0.156E+03 0.277E+03 0.513E+04   -.125E+01 0.213E+01 0.145E+01   0.568E-01 0.243E-02 -.637E-01
   -.335E+03 -.262E+03 0.348E+04   0.337E+03 0.265E+03 -.349E+04   -.115E+01 -.181E+01 0.250E+01   0.132E-01 -.196E-01 0.187E-01
   -.298E+03 -.544E+03 0.532E+04   0.290E+03 0.537E+03 -.531E+04   0.742E+01 0.669E+01 -.712E+01   -.794E-01 0.983E-01 -.440E-01
   0.388E+03 -.255E+03 -.548E+03   -.389E+03 0.256E+03 0.548E+03   0.980E+00 -.662E+00 0.172E+00   0.647E-02 -.719E-03 -.392E-01
   0.339E+03 -.213E+03 -.362E+04   -.339E+03 0.213E+03 0.362E+04   0.473E+00 -.298E+00 -.156E+01   -.108E-01 0.367E-01 -.162E+00
   0.494E+03 -.502E+03 0.489E+04   -.494E+03 0.501E+03 -.489E+04   -.775E-01 0.328E-01 -.696E+00   -.683E-01 0.171E+00 0.192E-01
   0.375E+03 -.262E+03 0.229E+04   -.376E+03 0.263E+03 -.229E+04   0.858E+00 -.548E+00 0.309E+00   -.109E-01 0.410E-01 0.755E-01
   0.178E+03 0.264E+03 -.514E+04   -.175E+03 -.263E+03 0.513E+04   -.249E+01 0.156E+00 0.148E+01   0.334E-01 -.813E-01 -.402E-01
   0.763E+02 0.304E+03 0.360E+04   -.767E+02 -.305E+03 -.360E+04   0.355E+00 0.363E+00 0.366E+01   0.503E-02 -.111E-01 0.403E-01
   0.240E+02 0.482E+03 0.489E+03   -.245E+02 -.483E+03 -.490E+03   0.487E+00 0.104E+01 0.138E+01   -.861E-02 0.251E-01 -.538E-03
   0.200E+02 0.486E+03 -.251E+04   -.210E+02 -.488E+03 0.251E+04   0.985E+00 0.124E+01 -.165E-01   -.978E-02 0.163E-02 -.157E+00
   -.437E+03 -.265E+03 0.494E+03   0.437E+03 0.266E+03 -.496E+03   -.618E+00 -.901E+00 0.122E+01   -.119E-01 -.143E-03 -.829E-02
   -.428E+03 -.240E+03 -.251E+04   0.429E+03 0.242E+03 0.251E+04   -.735E+00 -.146E+01 0.322E-01   0.488E-02 -.219E-01 -.151E+00
   -.156E+03 -.279E+03 -.514E+04   0.157E+03 0.276E+03 0.513E+04   -.123E+01 0.213E+01 0.142E+01   -.145E-01 -.118E+00 -.495E-01
   -.428E+03 -.400E+03 0.375E+04   0.431E+03 0.402E+03 -.375E+04   -.257E+01 -.188E+01 0.382E+01   0.115E-01 -.301E-01 0.546E-01
   -.421E+03 -.430E+03 0.530E+04   0.414E+03 0.421E+03 -.529E+04   0.650E+01 0.821E+01 -.758E+01   0.265E-01 0.196E+00 -.333E-01
   -.119E+03 0.794E+02 -.164E+03   0.121E+03 -.804E+02 0.162E+03   -.170E+01 0.102E+01 0.200E+01   -.964E-03 -.376E-02 -.154E-01
   -.107E+03 0.666E+02 -.128E+04   0.108E+03 -.677E+02 0.127E+04   -.207E+01 0.129E+01 0.348E+01   -.130E-01 -.603E-02 -.693E-01
   -.178E+03 0.149E+03 0.184E+04   0.180E+03 -.150E+03 -.184E+04   -.213E+01 0.117E+01 -.135E+01   0.781E-02 0.197E-01 -.122E-01
   -.145E+03 0.102E+03 0.923E+03   0.147E+03 -.103E+03 -.926E+03   -.186E+01 0.109E+01 0.208E+01   0.861E-02 -.465E-02 0.475E-01
   -.170E+03 0.105E+03 -.201E+04   0.172E+03 -.106E+03 0.201E+04   -.409E+01 0.253E+01 -.286E+01   0.339E-01 -.901E-02 0.256E-01
   0.631E+02 -.564E+02 -.177E+04   -.642E+02 0.572E+02 0.178E+04   0.132E+01 -.986E+00 -.143E+01   -.304E-01 -.125E-01 -.485E-01
   0.149E+01 -.168E+03 -.644E+03   -.148E+01 0.171E+03 0.644E+03   -.596E-01 -.268E+01 -.210E+00   0.350E-02 -.113E-01 -.379E-01
   0.167E+03 -.187E+02 0.163E+04   -.169E+03 0.205E+02 -.164E+04   0.271E+01 -.188E+01 -.215E-01   0.169E-01 -.317E-01 -.107E-01
   0.157E+02 -.161E+03 0.494E+03   -.157E+02 0.164E+03 -.495E+03   -.404E-01 -.276E+01 0.302E+00   0.113E-01 -.359E-02 0.245E-01
   0.177E+03 0.112E+03 0.148E+04   -.179E+03 -.113E+03 -.148E+04   0.249E+01 0.110E+01 -.804E+00   -.269E-01 0.345E-01 0.907E-02
   0.158E+03 0.931E+02 0.466E+03   -.161E+03 -.943E+02 -.467E+03   0.259E+01 0.113E+01 0.258E+00   0.935E-02 0.569E-03 0.405E-01
   0.152E+03 0.773E+02 -.641E+03   -.154E+03 -.785E+02 0.641E+03   0.237E+01 0.125E+01 -.262E+00   0.675E-02 0.113E-01 -.486E-01
   0.793E+02 -.301E+02 -.177E+04   -.805E+02 0.307E+02 0.178E+04   0.150E+01 -.702E+00 -.140E+01   0.133E-02 0.343E-01 -.515E-01
   -.125E+03 0.775E+02 -.174E+03   0.126E+03 -.786E+02 0.172E+03   -.171E+01 0.109E+01 0.201E+01   -.341E-02 0.782E-02 -.248E-01
   -.108E+03 0.662E+02 -.128E+04   0.110E+03 -.674E+02 0.127E+04   -.210E+01 0.132E+01 0.348E+01   0.203E-01 0.389E-01 -.526E-01
   -.360E+03 0.309E+03 0.188E+04   0.366E+03 -.312E+03 -.189E+04   -.636E+01 0.408E+01 0.430E+00   0.492E-01 0.249E-01 0.305E-01
   -.150E+03 0.125E+03 0.100E+04   0.151E+03 -.126E+03 -.100E+04   -.160E+01 0.114E+01 0.170E+01   -.407E-02 -.503E-02 0.295E-01
   -.170E+03 0.105E+03 -.201E+04   0.172E+03 -.106E+03 0.201E+04   -.410E+01 0.254E+01 -.289E+01   -.182E-01 -.315E-01 0.462E-02
   0.626E+02 -.567E+02 -.178E+04   -.637E+02 0.575E+02 0.178E+04   0.130E+01 -.987E+00 -.144E+01   0.304E-01 0.126E-01 -.188E-01
   0.134E+01 -.166E+03 -.641E+03   -.134E+01 0.169E+03 0.641E+03   -.274E-01 -.271E+01 -.161E+00   -.640E-02 -.853E-02 -.304E-01
   -.128E+03 -.540E+02 0.172E+04   0.129E+03 0.557E+02 -.173E+04   -.161E+01 -.183E+01 0.183E+01   0.436E-02 -.282E-01 0.300E-01
   -.116E+02 -.172E+03 0.514E+03   0.113E+02 0.175E+03 -.515E+03   0.297E+00 -.278E+01 0.327E+00   0.144E-04 -.824E-02 0.191E-01
   0.129E+03 0.864E+02 0.147E+04   -.132E+03 -.877E+02 -.147E+04   0.237E+01 0.128E+01 -.840E+00   -.367E-01 0.291E-01 0.637E-01
   0.135E+03 0.881E+02 0.468E+03   -.138E+03 -.893E+02 -.469E+03   0.250E+01 0.116E+01 0.559E+00   -.501E-02 -.687E-02 0.272E-01
   0.148E+03 0.767E+02 -.638E+03   -.150E+03 -.779E+02 0.639E+03   0.238E+01 0.124E+01 -.250E+00   -.179E-02 0.923E-03 -.185E-01
   0.788E+02 -.301E+02 -.177E+04   -.800E+02 0.308E+02 0.178E+04   0.148E+01 -.708E+00 -.141E+01   -.417E-01 0.512E-02 -.327E-01
   -.116E+03 0.685E+02 -.178E+03   0.118E+03 -.696E+02 0.176E+03   -.167E+01 0.105E+01 0.181E+01   0.232E-02 0.125E-04 -.248E-01
   -.107E+03 0.658E+02 -.128E+04   0.108E+03 -.668E+02 0.127E+04   -.204E+01 0.125E+01 0.354E+01   0.160E-01 -.992E-02 -.750E-01
   0.893E+02 0.175E+02 0.195E+04   -.893E+02 -.194E+02 -.195E+04   0.779E+00 0.219E+01 0.144E+01   0.466E-03 0.788E-02 -.197E-01
   -.100E+03 0.470E+02 0.928E+03   0.102E+03 -.481E+02 -.930E+03   -.201E+01 0.101E+01 0.187E+01   -.330E-02 0.813E-02 0.243E-01
   -.169E+03 0.105E+03 -.201E+04   0.171E+03 -.106E+03 0.201E+04   -.409E+01 0.253E+01 -.288E+01   0.572E-02 -.146E-01 0.248E-01
   0.635E+02 -.580E+02 -.177E+04   -.646E+02 0.587E+02 0.178E+04   0.132E+01 -.100E+01 -.142E+01   -.233E-01 0.164E-01 -.528E-01
   0.385E+01 -.169E+03 -.638E+03   -.382E+01 0.172E+03 0.638E+03   -.697E-01 -.263E+01 -.273E+00   -.300E-02 -.180E-02 -.562E-01
   0.636E+02 -.277E+03 0.151E+04   -.637E+02 0.279E+03 -.151E+04   0.341E-01 -.252E+01 -.545E+00   -.124E-01 0.650E-02 -.381E-01
   0.882E+01 -.179E+03 0.456E+03   -.891E+01 0.182E+03 -.457E+03   0.159E+00 -.284E+01 0.391E+00   0.627E-02 -.233E-03 0.322E-01
   0.156E+03 -.710E+02 0.184E+04   -.157E+03 0.721E+02 -.184E+04   0.111E+01 -.138E+01 0.556E+01   0.953E-02 -.143E-01 0.314E-02
   0.172E+03 0.537E+02 0.508E+03   -.174E+03 -.549E+02 -.509E+03   0.259E+01 0.113E+01 0.201E+00   0.413E-02 -.376E-02 0.175E-01
   0.155E+03 0.698E+02 -.638E+03   -.157E+03 -.711E+02 0.639E+03   0.234E+01 0.130E+01 -.340E+00   0.191E-02 0.163E-02 -.467E-01
   0.800E+02 -.315E+02 -.178E+04   -.812E+02 0.322E+02 0.178E+04   0.147E+01 -.715E+00 -.142E+01   0.425E-01 -.108E-01 -.341E-01
   -.119E+03 0.703E+02 -.180E+03   0.120E+03 -.714E+02 0.179E+03   -.165E+01 0.107E+01 0.191E+01   -.330E-02 -.400E-03 -.267E-01
   -.108E+03 0.661E+02 -.128E+04   0.109E+03 -.671E+02 0.127E+04   -.202E+01 0.121E+01 0.353E+01   -.148E-02 -.396E-01 -.323E-01
   0.703E+02 -.152E+03 0.205E+04   -.717E+02 0.153E+03 -.206E+04   0.243E+01 -.137E+01 0.435E+01   0.206E-01 -.168E-01 -.590E-02
   -.102E+03 0.321E+02 0.947E+03   0.104E+03 -.332E+02 -.949E+03   -.175E+01 0.112E+01 0.212E+01   -.958E-02 0.854E-02 0.190E-01
   -.170E+03 0.104E+03 -.201E+04   0.172E+03 -.106E+03 0.201E+04   -.409E+01 0.252E+01 -.286E+01   0.104E-01 0.338E-01 0.103E-01
   0.634E+02 -.576E+02 -.177E+04   -.645E+02 0.584E+02 0.178E+04   0.126E+01 -.100E+01 -.140E+01   -.735E-02 -.243E-01 -.491E-01
   0.181E+01 -.171E+03 -.634E+03   -.179E+01 0.173E+03 0.634E+03   -.406E-01 -.264E+01 -.277E+00   -.959E-02 0.138E-02 -.370E-01
   0.180E+02 -.252E+03 0.151E+04   -.181E+02 0.254E+03 -.152E+04   -.102E-01 -.243E+01 -.409E+00   -.497E-02 0.173E-01 -.826E-02
   -.932E+00 -.170E+03 0.465E+03   0.780E+00 0.173E+03 -.466E+03   0.219E+00 -.283E+01 0.513E+00   -.400E-02 0.800E-02 0.181E-01
   0.412E+02 0.583E+02 0.170E+04   -.421E+02 -.600E+02 -.171E+04   0.820E+00 0.222E+01 0.194E+01   -.933E-03 -.832E-02 0.317E-02
   0.151E+03 0.600E+02 0.492E+03   -.153E+03 -.612E+02 -.493E+03   0.274E+01 0.117E+01 0.277E+00   -.728E-03 -.226E-02 0.167E-01
   0.152E+03 0.705E+02 -.639E+03   -.154E+03 -.717E+02 0.640E+03   0.234E+01 0.125E+01 -.167E+00   0.554E-02 0.907E-02 -.460E-01
   0.796E+02 -.315E+02 -.177E+04   -.807E+02 0.321E+02 0.178E+04   0.148E+01 -.732E+00 -.145E+01   -.307E-02 0.250E-02 -.518E-01
 -----------------------------------------------------------------------------------------------
   -.380E+01 -.439E+01 -.537E+01   -.139E-11 -.263E-12 -.432E-11   0.375E+01 0.356E+01 0.735E+01   -.459E-01 0.709E+00 -.208E+01
 
 
 POSITION                                       TOTAL-FORCE (eV/Angst)
 -----------------------------------------------------------------------------------
      2.62560      6.70560      6.64784         0.092618     -0.081857     -0.057720
      3.57110      6.12193      9.58390         0.237706     -0.171484      0.275224
      1.68010      1.66104      3.71178        -0.309350     -0.116524     -0.357309
      0.56471      0.86257     11.74423         1.032519      0.195776     -0.539121
      1.81412      5.71953      0.00000         0.515951      0.536887      1.669318
      2.75962      5.13586      2.93606        -0.156177     -0.150355     -0.050959
      3.70512      4.55219      5.87212        -0.044522      0.113506     -0.027548
      4.65062      3.96852      8.80817        -0.034975     -0.124348      0.131449
      0.00304      4.18332      5.87212        -0.116394     -0.035722      0.005764
      0.94854      3.59965      8.80817         0.080575      0.064194      0.139438
      1.89404      3.01598     11.74423         0.266170     -1.010793     -0.534673
      4.08895      7.28927      2.93606        -0.049193      0.211752     -0.010812
      3.14345      2.24471      0.00000         0.066054     -0.496592      2.285294
      7.65701      9.22789      6.64784         0.081628     -0.100611     -0.057211
      8.60251      8.64422      9.58390         0.231049     -0.167244      0.271230
      5.76601      4.76699      0.77572        -0.230465      0.141904      1.525056
      6.71151      4.18332      3.71178        -0.137296      0.097990     -0.165057
      5.59612      3.38485     11.74423         1.029279      0.204085     -0.537027
      6.84553      8.24181      0.00000         0.505267      0.638473      1.793122
      7.79103      7.65814      2.93606        -0.236441     -0.035780     -0.241878
      8.73653      7.07447      5.87212        -0.029889      0.079066     -0.015713
      9.68203      6.49080      8.80817        -0.034379     -0.122982      0.125882
      5.03445      6.70560      5.87212        -0.109195     -0.048863      0.005067
      5.97995      6.12193      8.80817         0.093280      0.055918      0.129089
      6.92545      5.53827     11.74423         0.264754     -1.013055     -0.543991
      9.12036      9.81155      2.93606        -0.122454      0.075742     -0.197357
      2.62560     12.33384      6.64784         0.120646     -0.078308     -0.062612
      3.57110     11.75017      9.58390         0.263320     -0.158885      0.274994
      0.73460      7.87294      0.77572        -0.203453     -0.093836      0.990626
      1.68010      7.28927      3.71178        -0.175810      0.080512     -0.206377
      0.56471      6.49080     11.74423         1.030533      0.204413     -0.540959
      2.75962     10.76409      2.93606        -0.392168      0.032879     -0.237489
      3.70512     10.18042      5.87212        -0.017921      0.151218      0.015249
      4.65062      9.59675      8.80817        -0.015692     -0.131095      0.137624
      0.00304      9.81155      5.87212        -0.129292     -0.065651     -0.005494
      0.94854      9.22789      8.80817         0.068878      0.057183      0.155118
      1.89404      8.64422     11.74423         0.269482     -1.014115     -0.546409
      4.08895     12.91750      2.93606         0.111910      0.252462     -0.115838
      3.14345      7.87294      0.00000        -0.103622     -0.771926      1.654979
      7.65701     14.85612      6.64784         0.115480     -0.091790     -0.051426
      8.60251     14.27245      9.58390         0.244377     -0.162416      0.266232
      5.76601     10.39522      0.77572        -0.069995     -0.180844      0.922097
      6.71151      9.81155      3.71178        -0.159810      0.074083     -0.183849
      5.59612      9.01308     11.74423         1.038957      0.209285     -0.539160
      7.79103     13.28637      2.93606         0.023708     -0.030825     -0.311306
      8.73653     12.70270      5.87212        -0.002980      0.178220      0.003410
      9.68203     12.11903      8.80817        -0.033782     -0.128093      0.150939
      5.03445     12.33384      5.87212        -0.119454     -0.070868      0.027859
      5.97995     11.75017      8.80817         0.071462      0.056042      0.139832
      6.92545     11.16650     11.74423         0.286341     -1.019799     -0.552962
      9.12036     15.43979      2.93606         0.366472      0.166756     -0.376354
      8.17486     10.39522      0.00000        -0.063577     -0.895784      1.760279
      0.73335      2.24548      7.01153         0.032067     -0.007208      0.246685
      1.67886      1.66181      9.94759        -0.290227      0.175337      0.352194
      3.87376      5.93510      1.13942         0.256248     -0.159601     -1.929593
      4.81926      5.35143      4.07548         0.037348      0.037712     -0.055176
      2.62436      6.70637     12.88365        -1.860380      1.151749     -1.073980
      0.30423      4.40389     10.93537         0.215951     -0.229190      0.423345
      4.39014      7.50984      7.99931        -0.046894     -0.027959      0.097228
      2.49914      3.04894      2.12720         0.479065     -0.092603     -0.807238
      3.44464      2.46527      5.06325        -0.097469      0.011458     -0.119340
      0.80642      5.93510      2.12720         0.000626      0.056191     -0.942580
      1.75192      5.35143      5.06325         0.014801     -0.051747     -0.030870
      2.69743      4.76776      7.99931         0.019831      0.081648      0.125202
      3.64293      4.18409     10.93537         0.311962     -0.080367      0.415366
      5.76476      4.76776      7.01153         0.025961      0.006178      0.273531
      6.71027      4.18409      9.94759        -0.292060      0.181533      0.352388
      8.90517      8.45738      1.13942        -0.734479      0.576798     -1.656615
      9.85067      7.87371      4.07548         0.124932     -0.014657     -0.169460
      7.65577      9.22865     12.88365        -1.859731      1.154485     -1.072637
      5.33564      6.92617     10.93537         0.216763     -0.227580      0.411097
      9.42155     10.03212      7.99931        -0.034770     -0.025848      0.102610
      7.53055      5.57122      2.12720        -0.443842     -0.144615     -0.229528
      8.47605      4.98755      5.06325        -0.019191      0.013590     -0.116151
      5.83783      8.45738      2.12720        -0.114922      0.027934     -0.875320
      6.78333      7.87371      5.06325        -0.005746     -0.039280     -0.004327
      7.72884      7.29004      7.99931         0.030806      0.085329      0.136231
      8.67434      6.70637     10.93537         0.306875     -0.078876      0.421738
      0.73335      7.87371      7.01153         0.045781     -0.017901      0.244413
      1.67886      7.29004      9.94759        -0.295874      0.180583      0.365072
      3.87376     11.56333      1.13942         0.778411      0.354819     -1.218837
      4.81926     10.97966      4.07548        -0.058828     -0.008472     -0.157707
      2.62436     12.33460     12.88365        -1.860431      1.152485     -1.068768
      0.30423     10.03212     10.93537         0.207006     -0.227366      0.420477
      4.39014     13.13807      7.99931        -0.034676     -0.032666      0.106505
      2.49914      8.67717      2.12720        -0.079939      0.067296     -0.932430
      3.44464      8.09350      5.06325         0.084656      0.011763     -0.004852
      0.80642     11.56333      2.12720        -0.035673     -0.267760      0.677202
      1.75192     10.97966      5.06325         0.028365      0.011608     -0.085893
      2.69743     10.39599      7.99931        -0.000534      0.064809      0.098745
      3.64293      9.81232     10.93537         0.310897     -0.065915      0.421320
      5.76476     10.39599      7.01153         0.047679     -0.015687      0.243041
      6.71027      9.81232      9.94759        -0.297209      0.177949      0.375921
      8.90517     14.08561      1.13942         1.024216     -0.602600     -0.186048
      9.85067     13.50194      4.07548        -0.028137     -0.019613     -0.042916
      7.65577     14.85688     12.88365        -1.856341      1.153527     -1.062645
      5.33564     12.55440     10.93537         0.198367     -0.221173      0.425049
      9.42155     15.66035      7.99931        -0.030435     -0.026264      0.107928
      7.53055     11.19946      2.12720        -0.151973      0.197861     -0.903022
      8.47605     10.61579      5.06325         0.063541      0.014738     -0.041372
      5.83783     14.08561      2.12720        -0.065187      0.459605     -0.215490
      6.78333     13.50194      5.06325        -0.003275     -0.005839     -0.169748
      7.72884     12.91827      7.99931         0.010412      0.042345      0.108870
      8.67434     12.33460     10.93537         0.315528     -0.066442      0.431823
 -----------------------------------------------------------------------------------
    total drift:                               -0.098080     -0.120678     -0.096450


--------------------------------------------------------------------------------------------------------



  FREE ENERGIE OF THE ION-ELECTRON SYSTEM (eV)
  ---------------------------------------------------
  free  energy   TOTEN  =      -514.80964891 eV

  energy  without entropy=     -513.27056619  energy(sigma->0) =     -514.04010755
 


--------------------------------------------------------------------------------------------------------


    POTLOK:  cpu time    0.0738: real time    0.0743


--------------------------------------------------------------------------------------------------------


     LOOP+:  cpu time  258.6569: real time  259.3799
    4ORBIT:  cpu time    0.0000: real time    0.0000

 total amount of memory used by VASP MPI-rank0    52337. kBytes
=======================================================================

   base      :      30000. kBytes
   nonlr-proj:       3436. kBytes
   fftplans  :       4391. kBytes
   grid      :       7756. kBytes
   one-center:        139. kBytes
   wavefun   :       6615. kBytes
 
  
  
 General timing and accounting informations for this job:
 ========================================================
  
                  Total CPU time used (sec):      262.154
                            User time (sec):      259.775
                          System time (sec):        2.378
                         Elapsed time (sec):      263.325
  
                   Maximum memory used (kb):      283044.
                   Average memory used (kb):           0.
  
                          Minor page faults:       161448
                          Major page faults:            0
                 Voluntary context switches:         1092
