 vasp.6.1.0 28Jan20 (build Mar 31 2020 17:42:31) gamma-only                     
  
 executed on             LinuxIFC date 2020.04.12  12:14:18
 running on   48 total cores
 distrk:  each k-point on   48 cores,    1 groups
 distr:  one band on NCORE=   6 cores,    8 groups


--------------------------------------------------------------------------------------------------------


 INCAR:
 POTCAR:    PAW_PBE Ni_pv 06Sep2000               
 POTCAR:    PAW_PBE S 06Sep2000                   
 POTCAR:    PAW_PBE Ni_pv 06Sep2000               
   VRHFIN =Ni:                                                                                      
   LEXCH  = PE                                                                                      
   EATOM  =  3501.1230 eV,  257.3253 Ry                                                             
                                                                                                    
   TITEL  = PAW_PBE Ni_pv 06Sep2000                                                                 
   LULTRA =        F    use ultrasoft PP ?                                                          
   IUNSCR =        1    unscreen: 0-lin 1-nonlin 2-no                                               
   RPACOR =    1.500    partial core radius                                                         
   POMASS =   58.690; ZVAL   =   16.000    mass and valenz                                          
   RCORE  =    2.000    outmost cutoff radius                                                       
   RWIGS  =    2.000; RWIGS  =    1.058    wigner-seitz radius (au A)                               
   ENMAX  =  367.986; ENMIN  =  275.989 eV                                                          
   RCLOC  =    1.301    cutoff for local pot                                                        
   LCOR   =        T    correct aug charges                                                         
   LPAW   =        T    paw PP                                                                      
   EAUG   =  703.443                                                                                
   DEXC   =    0.000                                                                                
   RMAX   =    2.041    core radius for proj-oper                                                   
   RAUG   =    1.300    factor for augmentation sphere                                              
   RDEP   =    2.103    radius for radial grids                                                     
   RDEPT  =    1.618    core radius for aug-charge                                                  
                                                                                                    
   Atomic configuration                                                                             
    8 entries                                                                                       
     n  l   j            E        occ.                                                              
     1  0  0.50     -8206.4253   2.0000                                                             
     2  0  0.50      -976.1748   2.0000                                                             
     2  1  1.50      -839.0571   6.0000                                                             
     3  0  0.50      -105.9991   2.0000                                                             
     3  1  1.50       -66.4603   6.0000                                                             
     3  2  2.50        -4.6458   9.0000                                                             
     4  0  0.50        -4.4926   1.0000                                                             
     4  3  2.50        -1.3606   0.0000                                                             
   Description                                                                                      
     l       E           TYP  RCUT    TYP  RCUT                                                     
     1    -66.4602962     23  1.700                                                                 
     1     -1.3605826     23  1.700                                                                 
     2     -4.6457867     23  2.000                                                                 
     2     -6.0063693     23  2.000                                                                 
     0     -4.4925576     23  1.900                                                                 
     0     16.3626226     23  1.900                                                                 
  local pseudopotential read in
  partial core-charges read in
  partial kinetic energy density read in
  atomic valenz-charges read in
  non local Contribution for L=           1  read in
    real space projection operators read in
  non local Contribution for L=           1  read in
    real space projection operators read in
  non local Contribution for L=           2  read in
    real space projection operators read in
  non local Contribution for L=           2  read in
    real space projection operators read in
  non local Contribution for L=           0  read in
    real space projection operators read in
  non local Contribution for L=           0  read in
    real space projection operators read in
    PAW grid and wavefunctions read in
 
   number of l-projection  operators is LMAX  =           6
   number of lm-projection operators is LMMAX =          18
 
 POTCAR:    PAW_PBE S 06Sep2000                   
   VRHFIN =S : s2p4                                                                                 
   LEXCH  = PE                                                                                      
   EATOM  =   276.8230 eV,   20.3459 Ry                                                             
                                                                                                    
   TITEL  = PAW_PBE S 06Sep2000                                                                     
   LULTRA =        F    use ultrasoft PP ?                                                          
   IUNSCR =        1    unscreen: 0-lin 1-nonlin 2-no                                               
   RPACOR =    1.500    partial core radius                                                         
   POMASS =   32.066; ZVAL   =    6.000    mass and valenz                                          
   RCORE  =    1.900    outmost cutoff radius                                                       
   RWIGS  =    2.200; RWIGS  =    1.164    wigner-seitz radius (au A)                               
   ENMAX  =  258.689; ENMIN  =  194.016 eV                                                          
   ICORE  =        2    local potential                                                             
   LCOR   =        T    correct aug charges                                                         
   LPAW   =        T    paw PP                                                                      
   EAUG   =  335.092                                                                                
   DEXC   =    0.000                                                                                
   RMAX   =    1.942    core radius for proj-oper                                                   
   RAUG   =    1.300    factor for augmentation sphere                                              
   RDEP   =    1.954    radius for radial grids                                                     
   RDEPT  =    1.744    core radius for aug-charge                                                  
                                                                                                    
   Atomic configuration                                                                             
    6 entries                                                                                       
     n  l   j            E        occ.                                                              
     1  0  0.50     -2405.8406   2.0000                                                             
     2  0  0.50      -211.7007   2.0000                                                             
     2  1  1.50      -156.4958   6.0000                                                             
     3  0  0.50       -17.2562   2.0000                                                             
     3  1  0.50        -7.0085   4.0000                                                             
     3  2  1.50        -6.8029   0.0000                                                             
   Description                                                                                      
     l       E           TYP  RCUT    TYP  RCUT                                                     
     0    -17.2561641     23  1.900                                                                 
     0    -15.8743224     23  1.900                                                                 
     1     -7.0085400     23  1.900                                                                 
     1     -2.7779785     23  1.900                                                                 
     2     -6.8029130     23  1.900                                                                 
  local pseudopotential read in
  partial core-charges read in
  partial kinetic energy density read in
  atomic valenz-charges read in
  non local Contribution for L=           0  read in
    real space projection operators read in
  non local Contribution for L=           0  read in
    real space projection operators read in
  non local Contribution for L=           1  read in
    real space projection operators read in
  non local Contribution for L=           1  read in
    real space projection operators read in
    PAW grid and wavefunctions read in
 
   number of l-projection  operators is LMAX  =           4
   number of lm-projection operators is LMMAX =           8
 
 Optimization of the real space projectors (new method)

 maximal supplied QI-value         = 18.90
 optimisation between [QCUT,QGAM] = [ 10.77, 21.73] = [ 32.49,132.25] Ry 
 Optimized for a Real-space Cutoff    1.38 Angstroem

   l    n(q)    QCUT    max X(q) W(low)/X(q) W(high)/X(q)  e(spline) 
   1      8    10.771     2.836    0.40E-04    0.29E-04    0.12E-06
   1      8    10.771     4.023    0.10E-03    0.48E-04    0.29E-06
   2      8    10.771    73.368    0.42E-03    0.97E-04    0.44E-06
   2      8    10.771    69.010    0.42E-03    0.99E-04    0.45E-06
   0      9    10.771    54.797    0.10E-03    0.56E-04    0.74E-07
   0      9    10.771    24.266    0.89E-04    0.49E-04    0.67E-07
 Optimization of the real space projectors (new method)

 maximal supplied QI-value         = 19.84
 optimisation between [QCUT,QGAM] = [ 10.71, 21.63] = [ 32.15,130.99] Ry 
 Optimized for a Real-space Cutoff    1.19 Angstroem

   l    n(q)    QCUT    max X(q) W(low)/X(q) W(high)/X(q)  e(spline) 
   0      8    10.715   187.594    0.41E-03    0.53E-04    0.66E-07
   0      8    10.715   164.243    0.41E-03    0.53E-04    0.65E-07
   1      7    10.715    67.533    0.19E-03    0.59E-03    0.68E-07
   1      7    10.715    50.729    0.19E-03    0.58E-03    0.67E-07
  PAW_PBE Ni_pv 06Sep2000               :
 energy of atom  1       EATOM=-3501.1230
 kinetic energy error for atom=    0.0925 (will be added to EATOM!!)
  PAW_PBE S 06Sep2000                   :
 energy of atom  2       EATOM= -276.8230
 kinetic energy error for atom=    0.0033 (will be added to EATOM!!)
 
 
 POSCAR: Structure 34 made from -112-7.xsd file
  positions in direct lattice
  No initial velocities read in
 exchange correlation table for  LEXCH =        8
   RHO(1)=    0.500       N(1)  =     2000
   RHO(2)=  100.500       N(2)  =     4000
 


--------------------------------------------------------------------------------------------------------


 ion  position               nearest neighbor table
   1  0.780  0.145  0.123-  42 2.25  65 2.26  51 2.26  66 2.36  52 2.36  13 2.53
   2  0.815  0.145  0.309-  43 2.25  66 2.26  52 2.26  26 2.53  14 2.53
   3  0.263  0.645  0.031-  44 2.25  63 2.36  53 2.36  27 2.53  15 2.53
   4  0.297  0.645  0.216-  45 2.25  63 2.26  53 2.26  64 2.36  54 2.36  28 2.53  16 2.53
   5  0.435  0.145  0.062-  47 2.25  69 2.36  55 2.36  30 2.53  18 2.53
   6  0.470  0.145  0.247-  48 2.25  69 2.26  55 2.26  70 2.36  56 2.36  31 2.53  19 2.53
   7  0.952  0.645  0.154-  49 2.25  68 2.26  58 2.26  67 2.36  57 2.36  32 2.53  20 2.53
   8  0.987  0.645  0.340-  50 2.25  67 2.26  57 2.26  33 2.53  21 2.53
   9  0.090  0.145  0.000-  73 2.36  59 2.36
  10  0.125  0.145  0.185-  39 2.25  73 2.26  59 2.26  74 2.36  60 2.36  34 2.53  22 2.53
  11  0.159  0.145  0.370-  38 2.25  74 2.26  60 2.26  35 2.53  23 2.53
  12  0.642  0.645  0.278-  41 2.25  71 2.26  61 2.26  72 2.36  62 2.36  37 2.53  25 2.53
  13  0.908  0.013  0.099-  58 2.25  65 2.26  66 2.36  39 2.36   1 2.53
  14  0.942  0.013  0.284-  57 2.25  66 2.26  39 2.26  38 2.36   2 2.53  26 2.53
  15  0.390  0.513  0.006-  40 2.36  63 2.36  27 2.53   3 2.53
  16  0.425  0.513  0.192-  55 2.25  40 2.26  63 2.26  41 2.36  64 2.36   4 2.53  28 2.53
  17  0.459  0.513  0.377-  56 2.25  41 2.26  64 2.26  29 2.53
  18  0.563  0.013  0.037-  42 2.36  69 2.36   5 2.53  30 2.53
  19  0.597  0.013  0.222-  61 2.25  69 2.26  42 2.26  43 2.36  70 2.36  31 2.53   6 2.53
  20  0.080  0.513  0.130-  59 2.25  44 2.26  68 2.26  67 2.36  45 2.36   7 2.53  32 2.53
  21  0.115  0.513  0.315-  60 2.25  67 2.26  45 2.26  46 2.36   8 2.53  33 2.53
  22  0.252  0.013  0.161-  53 2.25  47 2.26  73 2.26  48 2.36  74 2.36  10 2.53  34 2.53
  23  0.287  0.013  0.346-  54 2.25  48 2.26  74 2.26  11 2.53  35 2.53
  24  0.735  0.513  0.068-  51 2.25  71 2.36  49 2.36  36 2.53
  25  0.770  0.513  0.253-  52 2.25  71 2.26  49 2.26  72 2.36  50 2.36  12 2.53  37 2.53
  26  0.942  0.277  0.284-  67 2.25  52 2.26  39 2.26  38 2.36   2 2.53  14 2.53
  27  0.390  0.777  0.006-  40 2.36  53 2.36  15 2.53   3 2.53
  28  0.425  0.777  0.192-  69 2.25  40 2.26  53 2.26  41 2.36  54 2.36   4 2.53  16 2.53
  29  0.459  0.777  0.377-  70 2.25  41 2.26  54 2.26  17 2.53
  30  0.563  0.277  0.037-  42 2.36  55 2.36   5 2.53  18 2.53
  31  0.597  0.277  0.222-  71 2.25  55 2.26  42 2.26  43 2.36  56 2.36  19 2.53   6 2.53
  32  0.080  0.777  0.130-  73 2.25  44 2.26  58 2.26  57 2.36  45 2.36   7 2.53  20 2.53
  33  0.115  0.777  0.315-  74 2.25  57 2.26  45 2.26  46 2.36   8 2.53  21 2.53
  34  0.252  0.277  0.161-  63 2.25  47 2.26  59 2.26  48 2.36  60 2.36  10 2.53  22 2.53
  35  0.287  0.277  0.346-  64 2.25  48 2.26  60 2.26  11 2.53  23 2.53
  36  0.735  0.777  0.068-  65 2.25  61 2.36  49 2.36  24 2.53
  37  0.770  0.777  0.253-  66 2.25  61 2.26  49 2.26  62 2.36  50 2.36  12 2.53  25 2.53
  38  0.026  0.145  0.369-  11 2.25  14 2.36  26 2.36
  39  0.991  0.145  0.183-  10 2.25  14 2.26  26 2.26  13 2.36
  40  0.474  0.645  0.091-  16 2.26  28 2.26  27 2.36  15 2.36
  41  0.509  0.645  0.276-  12 2.25  17 2.26  29 2.26  28 2.36  16 2.36
  42  0.647  0.145  0.122-   1 2.25  19 2.26  31 2.26  30 2.36  18 2.36
  43  0.681  0.145  0.307-   2 2.25  19 2.36  31 2.36
  44  0.129  0.645  0.029-   3 2.25  20 2.26  32 2.26
  45  0.164  0.645  0.214-   4 2.25  21 2.26  33 2.26  32 2.36  20 2.36
  46  0.198  0.645  0.400-  21 2.36  33 2.36
  47  0.302  0.145  0.060-   5 2.25  22 2.26  34 2.26
  48  0.336  0.145  0.245-   6 2.25  23 2.26  35 2.26  34 2.36  22 2.36
  49  0.819  0.645  0.153-   7 2.25  25 2.26  37 2.26  36 2.36  24 2.36
  50  0.854  0.645  0.338-   8 2.25  25 2.36  37 2.36
  51  0.794  0.314  0.029-  24 2.25   1 2.26
  52  0.829  0.314  0.215-  25 2.25  26 2.26   2 2.26   1 2.36
  53  0.312  0.814  0.122-  22 2.25   4 2.26  28 2.26   3 2.36  27 2.36
  54  0.346  0.814  0.307-  23 2.25  29 2.26   4 2.36  28 2.36
  55  0.484  0.314  0.153-  16 2.25   6 2.26  31 2.26  30 2.36   5 2.36
  56  0.519  0.314  0.338-  17 2.25   6 2.36  31 2.36
  57  0.001  0.814  0.246-  14 2.25  33 2.26   8 2.26  32 2.36   7 2.36
  58  0.967  0.814  0.060-  13 2.25   7 2.26  32 2.26
  59  0.139  0.314  0.091-  20 2.25  10 2.26  34 2.26   9 2.36
  60  0.174  0.314  0.276-  21 2.25  11 2.26  35 2.26  10 2.36  34 2.36
  61  0.657  0.814  0.184-  19 2.25  37 2.26  12 2.26  36 2.36
  62  0.691  0.814  0.369-  37 2.36  12 2.36
  63  0.312  0.477  0.122-  34 2.25   4 2.26  16 2.26   3 2.36  15 2.36
  64  0.346  0.477  0.307-  35 2.25  17 2.26   4 2.36  16 2.36
  65  0.794  0.977  0.029-  36 2.25  13 2.26   1 2.26
  66  0.829  0.977  0.215-  37 2.25  14 2.26   2 2.26  13 2.36   1 2.36
  67  0.001  0.477  0.246-  26 2.25  21 2.26   8 2.26  20 2.36   7 2.36
  68  0.967  0.477  0.060-   7 2.26  20 2.26
  69  0.484  0.977  0.153-  28 2.25   6 2.26  19 2.26  18 2.36   5 2.36
  70  0.519  0.977  0.338-  29 2.25   6 2.36  19 2.36
  71  0.657  0.477  0.184-  31 2.25  25 2.26  12 2.26  24 2.36
  72  0.691  0.477  0.369-  25 2.36  12 2.36
  73  0.139  0.977  0.091-  32 2.25  10 2.26  22 2.26   9 2.36
  74  0.174  0.977  0.276-  33 2.25  11 2.26  23 2.26  10 2.36  22 2.36
 
  LATTYP: Found a simple orthorhombic cell.
 ALAT       =     9.5784100000
 B/A-ratio  =     1.7387693453
 C/A-ratio  =     1.7627867312
  
  Lattice vectors:
  
 A1 = (   0.0000000000,   9.5784100000,   0.0000000000)
 A2 = (   0.0000000000,   0.0000000000, -16.6546456851)
 A3 = ( -16.8846940542,   0.0000000000,   0.0000000000)


Analysis of symmetry for initial positions (statically):
=====================================================================
 Subroutine PRICEL returns:
 Original cell was already a primitive cell.
 

 Routine SETGRP: Setting up the symmetry group for a 
 simple orthorhombic supercell.


 Subroutine GETGRP returns: Found  1 space group operations
 (whereof  1 operations were pure point group operations)
 out of a pool of  8 trial point group operations.


The static configuration has the point symmetry C_1 .


Analysis of symmetry for dynamics (positions and initial velocities):
=====================================================================
 Subroutine PRICEL returns:
 Original cell was already a primitive cell.
 

 Routine SETGRP: Setting up the symmetry group for a 
 simple orthorhombic supercell.


 Subroutine GETGRP returns: Found  1 space group operations
 (whereof  1 operations were pure point group operations)
 out of a pool of  8 trial point group operations.


The dynamic configuration has the point symmetry C_1 .


 Subroutine INISYM returns: Found  1 space group operations
 (whereof  1 operations are pure point group operations),
 and found     1 'primitive' translations


----------------------------------------------------------------------------------------

                                     Primitive cell                                     

  volume of cell :    2693.5312

  direct lattice vectors                    reciprocal lattice vectors
    16.884694054  0.000000000  0.000000000     0.059225237  0.000000000  0.000000000
     0.000000000  9.578410000  0.000000000     0.000000000  0.104401461  0.000000000
     0.000000000  0.000000000 16.654645685     0.000000000  0.000000000  0.060043307

  length of vectors
    16.884694054  9.578410000 16.654645685     0.059225237  0.104401461  0.060043307

  position of ions in fractional coordinates (direct lattice)
     0.780046305  0.145296957  0.123470797
     0.814614262  0.145296957  0.308676992
     0.262762326  0.645296957  0.030867699
     0.297330284  0.645296957  0.216073894
     0.435190319  0.145296957  0.061735398
     0.469758276  0.145296957  0.246941594
     0.952474298  0.645296957  0.154338496
     0.987042255  0.645296957  0.339544691
     0.090334334  0.145296957  0.000000000
     0.124902291  0.145296957  0.185206195
     0.159470248  0.145296957  0.370412390
     0.642186269  0.645296957  0.277809293
     0.907582774  0.013193957  0.099004503
     0.942150731  0.013193957  0.284210698
     0.390298796  0.513193957  0.006401405
     0.424866753  0.513193957  0.191607600
     0.459434710  0.513193957  0.376813796
     0.562726788  0.013193957  0.037269104
     0.597294746  0.013193957  0.222475300
     0.080010767  0.513193957  0.129872202
     0.114578724  0.513193957  0.315078397
     0.252438760  0.013193957  0.160739901
     0.287006717  0.013193957  0.345946096
     0.735154781  0.513193957  0.068136804
     0.769722738  0.513193957  0.253342999
     0.942150731  0.277399957  0.284210698
     0.390298796  0.777399957  0.006401405
     0.424866753  0.777399957  0.191607600
     0.459434710  0.777399957  0.376813796
     0.562726788  0.277399957  0.037269104
     0.597294746  0.277399957  0.222475300
     0.080010767  0.777399957  0.129872202
     0.114578724  0.777399957  0.315078397
     0.252438760  0.277399957  0.160739901
     0.287006717  0.277399957  0.345946096
     0.735154781  0.777399957  0.068136804
     0.769722738  0.777399957  0.253342999
     0.026029161  0.145296957  0.368699233
     0.991461204  0.145296957  0.183493038
     0.474177225  0.645296957  0.090889940
     0.508745182  0.645296957  0.276096136
     0.646605218  0.145296957  0.121757639
     0.681173175  0.145296957  0.306963835
     0.129321239  0.645296957  0.029154542
     0.163889197  0.645296957  0.214360737
     0.198457154  0.645296957  0.399566932
     0.301749232  0.145296957  0.060022241
     0.336317189  0.145296957  0.245228436
     0.819033211  0.645296957  0.152625339
     0.853601168  0.645296957  0.337831534
     0.794493096  0.313511957  0.029441303
     0.829061053  0.313511957  0.214647498
     0.311777074  0.813511957  0.122044400
     0.346345031  0.813511957  0.307250596
     0.484205067  0.313511957  0.152912100
     0.518773024  0.313511957  0.338118295
     0.001489046  0.813511957  0.245515197
     0.966921088  0.813511957  0.060309002
     0.139349081  0.313511957  0.091176701
     0.173917038  0.313511957  0.276382896
     0.656633060  0.813511957  0.183779799
     0.691201017  0.813511957  0.368985994
     0.311777074  0.477081957  0.122044400
     0.346345031  0.477081957  0.307250596
     0.794493096  0.977081957  0.029441303
     0.829061053  0.977081957  0.214647498
     0.001489046  0.477081957  0.245515197
     0.966921088  0.477081957  0.060309002
     0.484205067  0.977081957  0.152912100
     0.518773024  0.977081957  0.338118295
     0.656633060  0.477081957  0.183779799
     0.691201017  0.477081957  0.368985994
     0.139349081  0.977081957  0.091176701
     0.173917038  0.977081957  0.276382896

  ion indices of the primitive-cell ions
   primitive index   ion index
                 1           1
                 2           2
                 3           3
                 4           4
                 5           5
                 6           6
                 7           7
                 8           8
                 9           9
                10          10
                11          11
                12          12
                13          13
                14          14
                15          15
                16          16
                17          17
                18          18
                19          19
                20          20
                21          21
                22          22
                23          23
                24          24
                25          25
                26          26
                27          27
                28          28
                29          29
                30          30
                31          31
                32          32
                33          33
                34          34
                35          35
                36          36
                37          37
                38          38
                39          39
                40          40
                41          41
                42          42
                43          43
                44          44
                45          45
                46          46
                47          47
                48          48
                49          49
                50          50
                51          51
                52          52
                53          53
                54          54
                55          55
                56          56
                57          57
                58          58
                59          59
                60          60
                61          61
                62          62
                63          63
                64          64
                65          65
                66          66
                67          67
                68          68
                69          69
                70          70
                71          71
                72          72
                73          73
                74          74

----------------------------------------------------------------------------------------

 
 
 KPOINTS: gamma-point-only calculation. no periodi

Automatic generation of k-mesh.
Space group operators:
 irot       det(A)        alpha          n_x          n_y          n_z        tau_x        tau_y        tau_z
    1     1.000000     0.000000     1.000000     0.000000     0.000000     0.000000     0.000000     0.000000
 
 Subroutine IBZKPT returns following result:
 ===========================================
 
 Found      1 irreducible k-points:
 
 Following reciprocal coordinates:
            Coordinates               Weight
  0.000000  0.000000  0.000000      1.000000
 
 Following cartesian coordinates:
            Coordinates               Weight
  0.000000  0.000000  0.000000      1.000000
 


--------------------------------------------------------------------------------------------------------




 Dimension of arrays:
   k-points           NKPTS =      1   k-points in BZ     NKDIM =      1   number of bands    NBANDS=    488
   number of dos      NEDOS =    301   number of ions     NIONS =     74
   non local maximal  LDIM  =      6   non local SUM 2l+1 LMDIM =     18
   total plane-waves  NPLWV = 405000
   max r-space proj   IRMAX =   1708   max aug-charges    IRDMAX=   4936
   dimension x,y,z NGX =    90 NGY =   50 NGZ =   90
   dimension x,y,z NGXF=   180 NGYF=  100 NGZF=  180
   support grid    NGXF=   180 NGYF=  100 NGZF=  180
   ions per type =              37  37
   NGX,Y,Z   is equivalent  to a cutoff of   8.86,  8.68,  8.98 a.u.
   NGXF,Y,Z  is equivalent  to a cutoff of  17.72, 17.36, 17.97 a.u.

 SYSTEM =  "Millerite NiS"                         
 POSCAR =  Structure 34 made from -112-7.xsd file  

 Startparameter for this run:
   NWRITE =      2    write-flag & timer
   PREC   = normal    normal or accurate (medium, high low for compatibility)
   ISTART =      0    job   : 0-new  1-cont  2-samecut
   ICHARG =      2    charge: 1-file 2-atom 10-const
   ISPIN  =      1    spin polarized calculation?
   LNONCOLLINEAR =      F non collinear calculations
   LSORBIT =      F    spin-orbit coupling
   INIWAV =      1    electr: 0-lowe 1-rand  2-diag
   LASPH  =      F    aspherical Exc in radial PAW
   METAGGA=      F    non-selfconsistent MetaGGA calc.

 Electronic Relaxation 1
   ENCUT  =  450.0 eV  33.07 Ry    5.75 a.u.  29.20 16.57 28.81*2*pi/ulx,y,z
   ENINI  =  450.0     initial cutoff
   ENAUG  =  703.4 eV  augmentation charge cutoff
   NELM   =    100;   NELMIN=  2; NELMDL= -5     # of ELM steps 
   EDIFF  = 0.1E-03   stopping-criterion for ELM
   LREAL  =      T    real-space projection
   NLSPLINE    = F    spline interpolate recip. space projectors
   LCOMPAT=      F    compatible to vasp.4.4
   GGA_COMPAT  = T    GGA compatible to vasp.4.4-vasp.4.6
   LMAXPAW     = -100 max onsite density
   LMAXMIX     =    2 max onsite mixed and CHGCAR
   VOSKOWN=      0    Vosko Wilk Nusair interpolation
   ROPT   =   -0.00050  -0.00050
 Ionic relaxation
   EDIFFG = 0.1E-02   stopping-criterion for IOM
   NSW    =      0    number of steps for IOM
   NBLOCK =      1;   KBLOCK =      1    inner block; outer block 
   IBRION =     -1    ionic relax: 0-MD 1-quasi-New 2-CG
   NFREE  =      0    steps in history (QN), initial steepest desc. (CG)
   ISIF   =      2    stress and relaxation
   IWAVPR =     10    prediction:  0-non 1-charg 2-wave 3-comb
   ISYM   =      2    0-nonsym 1-usesym 2-fastsym
   LCORR  =      T    Harris-Foulkes like correction to forces

   POTIM  = 0.5000    time-step for ionic-motion
   TEIN   =    0.0    initial temperature
   TEBEG  =    0.0;   TEEND  =   0.0 temperature during run
   SMASS  =  -3.00    Nose mass-parameter (am)
   estimated Nose-frequenzy (Omega)   =  0.10E-29 period in steps = 0.13E+47 mass=  -0.652E-26a.u.
   SCALEE = 1.0000    scale energy and forces
   NPACO  =    256;   APACO  = 16.0  distance and # of slots for P.C.
   PSTRESS=    0.0 pullay stress

  Mass of Ions in am
   POMASS =  58.69 32.07
  Ionic Valenz
   ZVAL   =  16.00  6.00
  Atomic Wigner-Seitz radii
   RWIGS  =  -1.00 -1.00
  virtual crystal weights 
   VCA    =   1.00  1.00
   NELECT =     814.0000    total number of electrons
   NUPDOWN=      -1.0000    fix difference up-down

 DOS related values:
   EMIN   =  10.00;   EMAX   =-10.00  energy-range for DOS
   EFERMI =   0.00
   ISMEAR =     0;   SIGMA  =   0.20  broadening in eV -4-tet -1-fermi 0-gaus

 Electronic relaxation 2 (details)
   IALGO  =     38    algorithm
   LDIAG  =      T    sub-space diagonalisation (order eigenvalues)
   LSUBROT=      F    optimize rotation matrix (better conditioning)
   TURBO    =      0    0=normal 1=particle mesh
   IRESTART =      0    0=no restart 2=restart with 2 vectors
   NREBOOT  =      0    no. of reboots
   NMIN     =      0    reboot dimension
   EREF     =   0.00    reference energy to select bands
   IMIX   =      4    mixing-type and parameters
     AMIX     =   0.40;   BMIX     =  1.00
     AMIX_MAG =   1.60;   BMIX_MAG =  1.00
     AMIN     =   0.10
     WC   =   100.;   INIMIX=   1;  MIXPRE=   1;  MAXMIX= -45

 Intra band minimization:
   WEIMIN = 0.0000     energy-eigenvalue tresh-hold
   EBREAK =  0.51E-07  absolut break condition
   DEPER  =   0.30     relativ break condition  

   TIME   =   0.40     timestep for ELM

  volume/ion in A,a.u.               =      36.40       245.63
  Fermi-wavevector in a.u.,A,eV,Ry     =   1.098607  2.076066 16.421374  1.206937
  Thomas-Fermi vector in A             =   2.234987
 
 Write flags
   LWAVE        =      F    write WAVECAR
   LDOWNSAMPLE  =      F    k-point downsampling of WAVECAR
   LCHARG       =      F    write CHGCAR
   LVTOT        =      F    write LOCPOT, total local potential
   LVHAR        =      F    write LOCPOT, Hartree potential only
   LELF         =      F    write electronic localiz. function (ELF)
   LORBIT       =      0    0 simple, 1 ext, 2 COOP (PROOUT), +10 PAW based schemes


 Dipole corrections
   LMONO  =      F    monopole corrections only (constant potential shift)
   LDIPOL =      F    correct potential (dipole corrections)
   IDIPOL =      0    1-x, 2-y, 3-z, 4-all directions 
   EPSILON=  1.0000000 bulk dielectric constant

 Exchange correlation treatment:
   GGA     =    --    GGA type
   LEXCH   =     8    internal setting for exchange type
   VOSKOWN=      0    Vosko Wilk Nusair interpolation
   LHFCALC =     F    Hartree Fock is set to
   LHFONE  =     F    Hartree Fock one center treatment
   AEXX    =    0.0000 exact exchange contribution

 Linear response parameters
   LEPSILON=     F    determine dielectric tensor
   LRPA    =     F    only Hartree local field effects (RPA)
   LNABLA  =     F    use nabla operator in PAW spheres
   LVEL    =     F    velocity operator in full k-point grid
   LINTERFAST=   F  fast interpolation
   KINTER  =     0    interpolate to denser k-point grid
   CSHIFT  =0.1000    complex shift for real part using Kramers Kronig
   OMEGAMAX=  -1.0    maximum frequency
   DEG_THRESHOLD= 0.2000000E-02 threshold for treating states as degnerate
   RTIME   =   -0.100 relaxation time in fs
  (WPLASMAI=    0.000 imaginary part of plasma frequency in eV, 0.658/RTIME)
   DFIELD  = 0.0000000 0.0000000 0.0000000 field for delta impulse in time
 
 Orbital magnetization related:
   ORBITALMAG=     F  switch on orbital magnetization
   LCHIMAG   =     F  perturbation theory with respect to B field
   DQ        =  0.001000  dq finite difference perturbation B field
   LLRAUG    =     F  two centre corrections for induced B field



--------------------------------------------------------------------------------------------------------


 Static calculation
 charge density and potential will be updated during run
 non-spin polarized calculation
 Variant of blocked Davidson
 Davidson routine will perform the subspace rotation
 perform sub-space diagonalisation
    after iterative eigenvector-optimisation
 modified Broyden-mixing scheme, WC =      100.0
 initial mixing is a Kerker type mixing with AMIX =  0.4000 and BMIX =      1.0000
 Hartree-type preconditioning will be used
 using additional bands           81
 real space projection scheme for non local part
 use partial core corrections
 calculate Harris-corrections to forces 
   (improved forces if not selfconsistent)
 use gradient corrections 
 use of overlap-Matrix (Vanderbilt PP)
 Gauss-broadening in eV      SIGMA  =   0.20


--------------------------------------------------------------------------------------------------------


  energy-cutoff  :      450.00
  volume of cell :     2693.53
      direct lattice vectors                 reciprocal lattice vectors
    16.884694054  0.000000000  0.000000000     0.059225237  0.000000000  0.000000000
     0.000000000  9.578410000  0.000000000     0.000000000  0.104401461  0.000000000
     0.000000000  0.000000000 16.654645685     0.000000000  0.000000000  0.060043307

  length of vectors
    16.884694054  9.578410000 16.654645685     0.059225237  0.104401461  0.060043307


 
 k-points in units of 2pi/SCALE and weight: gamma-point-only calculation. no periodi
   0.00000000  0.00000000  0.00000000       1.000
 
 k-points in reciprocal lattice and weights: gamma-point-only calculation. no periodi
   0.00000000  0.00000000  0.00000000       1.000
 
 position of ions in fractional coordinates (direct lattice) 
   0.78004630  0.14529696  0.12347080
   0.81461426  0.14529696  0.30867699
   0.26276233  0.64529696  0.03086770
   0.29733028  0.64529696  0.21607389
   0.43519032  0.14529696  0.06173540
   0.46975828  0.14529696  0.24694159
   0.95247430  0.64529696  0.15433850
   0.98704225  0.64529696  0.33954469
   0.09033433  0.14529696  0.00000000
   0.12490229  0.14529696  0.18520619
   0.15947025  0.14529696  0.37041239
   0.64218627  0.64529696  0.27780929
   0.90758277  0.01319396  0.09900450
   0.94215073  0.01319396  0.28421070
   0.39029880  0.51319396  0.00640140
   0.42486675  0.51319396  0.19160760
   0.45943471  0.51319396  0.37681380
   0.56272679  0.01319396  0.03726910
   0.59729475  0.01319396  0.22247530
   0.08001077  0.51319396  0.12987220
   0.11457872  0.51319396  0.31507840
   0.25243876  0.01319396  0.16073990
   0.28700672  0.01319396  0.34594610
   0.73515478  0.51319396  0.06813680
   0.76972274  0.51319396  0.25334300
   0.94215073  0.27739996  0.28421070
   0.39029880  0.77739996  0.00640140
   0.42486675  0.77739996  0.19160760
   0.45943471  0.77739996  0.37681380
   0.56272679  0.27739996  0.03726910
   0.59729475  0.27739996  0.22247530
   0.08001077  0.77739996  0.12987220
   0.11457872  0.77739996  0.31507840
   0.25243876  0.27739996  0.16073990
   0.28700672  0.27739996  0.34594610
   0.73515478  0.77739996  0.06813680
   0.76972274  0.77739996  0.25334300
   0.02602916  0.14529696  0.36869923
   0.99146120  0.14529696  0.18349304
   0.47417722  0.64529696  0.09088994
   0.50874518  0.64529696  0.27609614
   0.64660522  0.14529696  0.12175764
   0.68117317  0.14529696  0.30696383
   0.12932124  0.64529696  0.02915454
   0.16388920  0.64529696  0.21436074
   0.19845715  0.64529696  0.39956693
   0.30174923  0.14529696  0.06002224
   0.33631719  0.14529696  0.24522844
   0.81903321  0.64529696  0.15262534
   0.85360117  0.64529696  0.33783153
   0.79449310  0.31351196  0.02944130
   0.82906105  0.31351196  0.21464750
   0.31177707  0.81351196  0.12204440
   0.34634503  0.81351196  0.30725060
   0.48420507  0.31351196  0.15291210
   0.51877302  0.31351196  0.33811830
   0.00148905  0.81351196  0.24551520
   0.96692109  0.81351196  0.06030900
   0.13934908  0.31351196  0.09117670
   0.17391704  0.31351196  0.27638290
   0.65663306  0.81351196  0.18377980
   0.69120102  0.81351196  0.36898599
   0.31177707  0.47708196  0.12204440
   0.34634503  0.47708196  0.30725060
   0.79449310  0.97708196  0.02944130
   0.82906105  0.97708196  0.21464750
   0.00148905  0.47708196  0.24551520
   0.96692109  0.47708196  0.06030900
   0.48420507  0.97708196  0.15291210
   0.51877302  0.97708196  0.33811830
   0.65663306  0.47708196  0.18377980
   0.69120102  0.47708196  0.36898599
   0.13934908  0.97708196  0.09117670
   0.17391704  0.97708196  0.27638290
 
 position of ions in cartesian coordinates  (Angst):
  13.17084321  1.39171383  2.05636238
  13.75451259  1.39171383  5.14090593
   4.43666148  6.18091883  0.51409059
   5.02033088  6.18091883  3.59863415
   7.34805539  1.39171383  1.02818118
   7.93172477  1.39171383  4.11272475
  16.08223712  6.18091883  2.57045297
  16.66590649  6.18091883  5.65499652
   1.52526759  1.39171383  0.00000000
   2.10893697  1.39171383  3.08454356
   2.69260635  1.39171383  6.16908711
  10.84311868  6.18091883  4.62681534
  15.32425747  0.12637713  1.64888492
  15.90792685  0.12637713  4.73342848
   6.59007576  4.91558213  0.10661313
   7.17374514  4.91558213  3.19115669
   7.75741452  4.91558213  6.27570026
   9.50146965  0.12637713  0.62070372
  10.08513905  0.12637713  3.70524730
   1.35095732  4.91558213  2.16297551
   1.93462670  4.91558213  5.24751907
   4.26235123  0.12637713  2.67706610
   4.84602061  0.12637713  5.76160966
  12.41286356  4.91558213  1.13479433
  12.99653294  4.91558213  4.21933789
  15.90792685  2.65705052  4.73342848
   6.59007576  7.44625552  0.10661313
   7.17374514  7.44625552  3.19115669
   7.75741452  7.44625552  6.27570026
   9.50146965  2.65705052  0.62070372
  10.08513905  2.65705052  3.70524730
   1.35095732  7.44625552  2.16297551
   1.93462670  7.44625552  5.24751907
   4.26235123  2.65705052  2.67706610
   4.84602061  2.65705052  5.76160966
  12.41286356  7.44625552  1.13479433
  12.99653294  7.44625552  4.21933789
   0.43949442  1.39171383  6.14055509
  16.74051910  1.39171383  3.05601153
   8.00633737  6.18091883  1.51373975
   8.59000675  6.18091883  4.59828332
  10.91773128  1.39171383  2.02783034
  11.50140066  1.39171383  5.11237391
   2.18354956  6.18091883  0.48555857
   2.76721895  6.18091883  3.57010212
   3.35088833  6.18091883  6.65464568
   5.09494346  1.39171383  0.99964916
   5.67861284  1.39171383  4.08419271
  13.82912519  6.18091883  2.54192094
  14.41279457  6.18091883  5.62646450
  13.41477285  3.00294606  0.49033447
  13.99844223  3.00294606  3.57487803
   5.26426051  7.79215106  2.03260624
   5.84792989  7.79215106  5.11714981
   8.17565442  3.00294606  2.54669685
   8.75932379  3.00294606  5.63124040
   0.02514209  7.79215106  4.08896862
  16.32616675  7.79215106  1.00442506
   2.35286660  3.00294606  1.51851565
   2.93653598  3.00294606  4.60305921
  11.08704832  7.79215106  3.06078744
  11.67071770  7.79215106  6.14533099
   5.26426051  4.56968659  2.03260624
   5.84792989  4.56968659  5.11714981
  13.41477285  9.35889159  0.49033447
  13.99844223  9.35889159  3.57487803
   0.02514209  4.56968659  4.08896862
  16.32616675  4.56968659  1.00442506
   8.17565442  9.35889159  2.54669685
   8.75932379  9.35889159  5.63124040
  11.08704832  4.56968659  3.06078744
  11.67071770  4.56968659  6.14533099
   2.35286660  9.35889159  1.51851565
   2.93653598  9.35889159  4.60305921
 


--------------------------------------------------------------------------------------------------------


 use parallel FFT for orbitals z direction half grid
 k-point   1 :   0.0000 0.0000 0.0000  plane waves:   29200

 maximum and minimum number of plane-waves per node :      4869     4864

 maximum number of plane-waves:     29200
 maximum index in each direction: 
   IXMAX=   29   IYMAX=   16   IZMAX=   28
   IXMIN=  -29   IYMIN=  -16   IZMIN=    0


 real space projection operators:
  total allocation   :      10758.03 KBytes
  max/ min on nodes  :       1797.98       1785.59


 parallel 3D FFT for wavefunctions:
    minimum data exchange during FFTs selected (reduces bandwidth)
 parallel 3D FFT for charge:
    minimum data exchange during FFTs selected (reduces bandwidth)


 total amount of memory used by VASP MPI-rank0    47785. kBytes
=======================================================================

   base      :      30000. kBytes
   nonlr-proj:       2198. kBytes
   fftplans  :       3870. kBytes
   grid      :       6776. kBytes
   one-center:        101. kBytes
   wavefun   :       4840. kBytes
 
     INWAV:  cpu time    0.0000: real time    0.0000
 Broyden mixing: mesh for mixing (old mesh)
   NGX = 59   NGY = 33   NGZ = 57
  (NGX  =180   NGY  =100   NGZ  =180)
  gives a total of 110979 points

 initial charge density was supplied:
 charge density of overlapping atoms calculated
 number of electron     814.0000000 magnetization 
 keeping initial charge density in first step


--------------------------------------------------------------------------------------------------------


 Maximum index for non-local projection operator          278
 Maximum index for augmentation-charges          335 (set IRDMAX)


--------------------------------------------------------------------------------------------------------


 First call to EWALD:  gamma=   0.127
 Maximum number of real-space cells 2x 4x 2
 Maximum number of reciprocal cells 3x 2x 3

    FEWALD:  cpu time    0.0049: real time    0.0050


--------------------------------------- Iteration      1(   1)  ---------------------------------------


    POTLOK:  cpu time    0.0678: real time    0.0682
    SETDIJ:  cpu time    0.0054: real time    0.0070
     EDDAV:  cpu time    2.8707: real time    2.8802
       DOS:  cpu time    0.0008: real time    0.0010
    --------------------------------------------
      LOOP:  cpu time    2.9447: real time    2.9564

 eigenvalue-minimisations  :  1200
 total energy-change (2. order) : 0.8824936E+04  (-0.5141049E+05)
 number of electron     814.0000000 magnetization 
 augmentation part      814.0000000 magnetization 

 Free energy of the ion-electron system (eV)
  ---------------------------------------------------
  alpha Z        PSCENC =      1458.83996183
  Ewald energy   TEWEN  =    113047.73814505
  -Hartree energ DENC   =   -237271.40205824
  -exchange      EXHF   =         0.00000000
  -V(xc)+E(xc)   XCENC  =      3738.86545501
  PAW double counting   =    115860.90926010  -120909.33166199
  entropy T*S    EENTRO =        -0.44053864
  eigenvalues    EBANDS =     -6880.69746971
  atomic energy  EATOM  =    139780.45519414
  Solvation  Ediel_sol  =         0.00000000
  ---------------------------------------------------
  free energy    TOTEN  =      8824.93628755 eV

  energy without entropy =     8825.37682619  energy(sigma->0) =     8825.15655687


--------------------------------------------------------------------------------------------------------




--------------------------------------- Iteration      1(   2)  ---------------------------------------


     EDDAV:  cpu time    2.5321: real time    2.5412
       DOS:  cpu time    0.0007: real time    0.0007
    --------------------------------------------
      LOOP:  cpu time    2.5328: real time    2.5419

 eigenvalue-minimisations  :  1040
 total energy-change (2. order) :-0.8335891E+04  (-0.8043401E+04)
 number of electron     814.0000000 magnetization 
 augmentation part      814.0000000 magnetization 

 Free energy of the ion-electron system (eV)
  ---------------------------------------------------
  alpha Z        PSCENC =      1458.83996183
  Ewald energy   TEWEN  =    113047.73814505
  -Hartree energ DENC   =   -237271.40205824
  -exchange      EXHF   =         0.00000000
  -V(xc)+E(xc)   XCENC  =      3738.86545501
  PAW double counting   =    115860.90926010  -120909.33166199
  entropy T*S    EENTRO =        -0.87971418
  eigenvalues    EBANDS =    -15216.14920327
  atomic energy  EATOM  =    139780.45519414
  Solvation  Ediel_sol  =         0.00000000
  ---------------------------------------------------
  free energy    TOTEN  =       489.04537844 eV

  energy without entropy =      489.92509263  energy(sigma->0) =      489.48523553


--------------------------------------------------------------------------------------------------------




--------------------------------------- Iteration      1(   3)  ---------------------------------------


     EDDAV:  cpu time    2.7629: real time    2.7714
       DOS:  cpu time    0.0007: real time    0.0007
    --------------------------------------------
      LOOP:  cpu time    2.7637: real time    2.7722

 eigenvalue-minimisations  :  1152
 total energy-change (2. order) :-0.8440806E+03  (-0.7991691E+03)
 number of electron     814.0000000 magnetization 
 augmentation part      814.0000000 magnetization 

 Free energy of the ion-electron system (eV)
  ---------------------------------------------------
  alpha Z        PSCENC =      1458.83996183
  Ewald energy   TEWEN  =    113047.73814505
  -Hartree energ DENC   =   -237271.40205824
  -exchange      EXHF   =         0.00000000
  -V(xc)+E(xc)   XCENC  =      3738.86545501
  PAW double counting   =    115860.90926010  -120909.33166199
  entropy T*S    EENTRO =        -1.73628170
  eigenvalues    EBANDS =    -16059.37327259
  atomic energy  EATOM  =    139780.45519414
  Solvation  Ediel_sol  =         0.00000000
  ---------------------------------------------------
  free energy    TOTEN  =      -355.03525839 eV

  energy without entropy =     -353.29897669  energy(sigma->0) =     -354.16711754


--------------------------------------------------------------------------------------------------------




--------------------------------------- Iteration      1(   4)  ---------------------------------------


     EDDAV:  cpu time    2.7610: real time    2.7688
       DOS:  cpu time    0.0006: real time    0.0006
    --------------------------------------------
      LOOP:  cpu time    2.7617: real time    2.7694

 eigenvalue-minimisations  :  1160
 total energy-change (2. order) :-0.4944508E+02  (-0.4877301E+02)
 number of electron     814.0000000 magnetization 
 augmentation part      814.0000000 magnetization 

 Free energy of the ion-electron system (eV)
  ---------------------------------------------------
  alpha Z        PSCENC =      1458.83996183
  Ewald energy   TEWEN  =    113047.73814505
  -Hartree energ DENC   =   -237271.40205824
  -exchange      EXHF   =         0.00000000
  -V(xc)+E(xc)   XCENC  =      3738.86545501
  PAW double counting   =    115860.90926010  -120909.33166199
  entropy T*S    EENTRO =        -1.77068405
  eigenvalues    EBANDS =    -16108.78394965
  atomic energy  EATOM  =    139780.45519414
  Solvation  Ediel_sol  =         0.00000000
  ---------------------------------------------------
  free energy    TOTEN  =      -404.48033780 eV

  energy without entropy =     -402.70965375  energy(sigma->0) =     -403.59499577


--------------------------------------------------------------------------------------------------------




--------------------------------------- Iteration      1(   5)  ---------------------------------------


     EDDAV:  cpu time    2.8772: real time    2.8842
       DOS:  cpu time    0.0006: real time    0.0006
    CHARGE:  cpu time    0.0653: real time    0.0656
    MIXING:  cpu time    0.0030: real time    0.0033
    --------------------------------------------
      LOOP:  cpu time    2.9462: real time    2.9537

 eigenvalue-minimisations  :  1224
 total energy-change (2. order) :-0.1623907E+01  (-0.1621667E+01)
 number of electron     813.9997662 magnetization 
 augmentation part      292.9701638 magnetization 

 Broyden mixing:
  rms(total) = 0.82659E+01    rms(broyden)= 0.82507E+01
  rms(prec ) = 0.89992E+01
  weight for this iteration     100.00

 Free energy of the ion-electron system (eV)
  ---------------------------------------------------
  alpha Z        PSCENC =      1458.83996183
  Ewald energy   TEWEN  =    113047.73814505
  -Hartree energ DENC   =   -237271.40205824
  -exchange      EXHF   =         0.00000000
  -V(xc)+E(xc)   XCENC  =      3738.86545501
  PAW double counting   =    115860.90926010  -120909.33166199
  entropy T*S    EENTRO =        -1.77286129
  eigenvalues    EBANDS =    -16110.40567937
  atomic energy  EATOM  =    139780.45519414
  Solvation  Ediel_sol  =         0.00000000
  ---------------------------------------------------
  free energy    TOTEN  =      -406.10424476 eV

  energy without entropy =     -404.33138347  energy(sigma->0) =     -405.21781411


--------------------------------------------------------------------------------------------------------




--------------------------------------- Iteration      1(   6)  ---------------------------------------


    POTLOK:  cpu time    0.0551: real time    0.0552
    SETDIJ:  cpu time    0.0043: real time    0.0062
     EDDAV:  cpu time    2.8053: real time    2.8134
       DOS:  cpu time    0.0023: real time    0.0023
    CHARGE:  cpu time    0.0617: real time    0.0618
    MIXING:  cpu time    0.0027: real time    0.0029
    --------------------------------------------
      LOOP:  cpu time    2.9314: real time    2.9418

 eigenvalue-minimisations  :  1152
 total energy-change (2. order) :-0.1220207E+03  (-0.1112421E+03)
 number of electron     813.9997085 magnetization 
 augmentation part      366.3281499 magnetization 

 Broyden mixing:
  rms(total) = 0.17969E+02    rms(broyden)= 0.17965E+02
  rms(prec ) = 0.19042E+02
  weight for this iteration     100.00

 eigenvalues of (default mixing * dielectric matrix)
  average eigenvalue GAMMA=   0.1999
  0.1999

 Free energy of the ion-electron system (eV)
  ---------------------------------------------------
  alpha Z        PSCENC =      1458.83996183
  Ewald energy   TEWEN  =    113047.73814505
  -Hartree energ DENC   =   -234343.75236285
  -exchange      EXHF   =         0.00000000
  -V(xc)+E(xc)   XCENC  =      3657.72557684
  PAW double counting   =    116775.52897393  -121569.40785379
  entropy T*S    EENTRO =        -0.95155265
  eigenvalues    EBANDS =    -19334.30103680
  atomic energy  EATOM  =    139780.45519414
  Solvation  Ediel_sol  =         0.00000000
  ---------------------------------------------------
  free energy    TOTEN  =      -528.12495429 eV

  energy without entropy =     -527.17340164  energy(sigma->0) =     -527.64917796


--------------------------------------------------------------------------------------------------------




--------------------------------------- Iteration      1(   7)  ---------------------------------------


    POTLOK:  cpu time    0.0545: real time    0.0574
    SETDIJ:  cpu time    0.0043: real time    0.0060
     EDDAV:  cpu time    2.8930: real time    2.9000
       DOS:  cpu time    0.0024: real time    0.0024
    CHARGE:  cpu time    0.0626: real time    0.0628
    MIXING:  cpu time    0.0023: real time    0.0024
    --------------------------------------------
      LOOP:  cpu time    3.0191: real time    3.0310

 eigenvalue-minimisations  :  1152
 total energy-change (2. order) : 0.1432840E+03  (-0.2030687E+02)
 number of electron     813.9997231 magnetization 
 augmentation part      345.6270048 magnetization 

 Broyden mixing:
  rms(total) = 0.77261E+01    rms(broyden)= 0.77250E+01
  rms(prec ) = 0.83445E+01
  weight for this iteration     100.00

 eigenvalues of (default mixing * dielectric matrix)
  average eigenvalue GAMMA=   0.4857
  0.4857  0.4857

 Free energy of the ion-electron system (eV)
  ---------------------------------------------------
  alpha Z        PSCENC =      1458.83996183
  Ewald energy   TEWEN  =    113047.73814505
  -Hartree energ DENC   =   -235557.01375784
  -exchange      EXHF   =         0.00000000
  -V(xc)+E(xc)   XCENC  =      3687.99076291
  PAW double counting   =    120906.80879966  -125849.25745500
  entropy T*S    EENTRO =        -1.30927059
  eigenvalues    EBANDS =    -17859.09330873
  atomic energy  EATOM  =    139780.45519414
  Solvation  Ediel_sol  =         0.00000000
  ---------------------------------------------------
  free energy    TOTEN  =      -384.84092856 eV

  energy without entropy =     -383.53165798  energy(sigma->0) =     -384.18629327


--------------------------------------------------------------------------------------------------------




--------------------------------------- Iteration      1(   8)  ---------------------------------------


    POTLOK:  cpu time    0.0537: real time    0.0539
    SETDIJ:  cpu time    0.0047: real time    0.0047
     EDDAV:  cpu time    3.3412: real time    3.3495
       DOS:  cpu time    0.0024: real time    0.0024
    CHARGE:  cpu time    0.0611: real time    0.0613
    MIXING:  cpu time    0.0025: real time    0.0025
    --------------------------------------------
      LOOP:  cpu time    3.4657: real time    3.4743

 eigenvalue-minimisations  :  1376
 total energy-change (2. order) :-0.3072350E+02  (-0.1890574E+02)
 number of electron     813.9997575 magnetization 
 augmentation part      315.2993503 magnetization 

 Broyden mixing:
  rms(total) = 0.12753E+02    rms(broyden)= 0.12750E+02
  rms(prec ) = 0.16505E+02
  weight for this iteration     100.00

 eigenvalues of (default mixing * dielectric matrix)
  average eigenvalue GAMMA=   0.3807
  0.5174  0.5174  0.1073

 Free energy of the ion-electron system (eV)
  ---------------------------------------------------
  alpha Z        PSCENC =      1458.83996183
  Ewald energy   TEWEN  =    113047.73814505
  -Hartree energ DENC   =   -236427.65314514
  -exchange      EXHF   =         0.00000000
  -V(xc)+E(xc)   XCENC  =      3711.15992298
  PAW double counting   =    125934.91005845  -130986.29056733
  entropy T*S    EENTRO =        -1.55624265
  eigenvalues    EBANDS =    -16933.16776024
  atomic energy  EATOM  =    139780.45519414
  Solvation  Ediel_sol  =         0.00000000
  ---------------------------------------------------
  free energy    TOTEN  =      -415.56443290 eV

  energy without entropy =     -414.00819024  energy(sigma->0) =     -414.78631157


--------------------------------------------------------------------------------------------------------




--------------------------------------- Iteration      1(   9)  ---------------------------------------


    POTLOK:  cpu time    0.0535: real time    0.0536
    SETDIJ:  cpu time    0.0047: real time    0.0048
     EDDAV:  cpu time    3.0401: real time    3.0478
       DOS:  cpu time    0.0025: real time    0.0025
    CHARGE:  cpu time    0.0630: real time    0.0631
    MIXING:  cpu time    0.0026: real time    0.0026
    --------------------------------------------
      LOOP:  cpu time    3.1664: real time    3.1744

 eigenvalue-minimisations  :  1232
 total energy-change (2. order) : 0.4170971E+02  (-0.1093056E+02)
 number of electron     813.9997553 magnetization 
 augmentation part      317.1468399 magnetization 

 Broyden mixing:
  rms(total) = 0.59820E+01    rms(broyden)= 0.59747E+01
  rms(prec ) = 0.70221E+01
  weight for this iteration     100.00

 eigenvalues of (default mixing * dielectric matrix)
  average eigenvalue GAMMA=   0.3810
  0.7967  0.3148  0.3148  0.0977

 Free energy of the ion-electron system (eV)
  ---------------------------------------------------
  alpha Z        PSCENC =      1458.83996183
  Ewald energy   TEWEN  =    113047.73814505
  -Hartree energ DENC   =   -236472.50187104
  -exchange      EXHF   =         0.00000000
  -V(xc)+E(xc)   XCENC  =      3712.28454009
  PAW double counting   =    127280.67544583  -132348.20528815
  entropy T*S    EENTRO =        -1.31544578
  eigenvalues    EBANDS =    -16831.82540018
  atomic energy  EATOM  =    139780.45519414
  Solvation  Ediel_sol  =         0.00000000
  ---------------------------------------------------
  free energy    TOTEN  =      -373.85471820 eV

  energy without entropy =     -372.53927242  energy(sigma->0) =     -373.19699531


--------------------------------------------------------------------------------------------------------




--------------------------------------- Iteration      1(  10)  ---------------------------------------


    POTLOK:  cpu time    0.0537: real time    0.0538
    SETDIJ:  cpu time    0.0048: real time    0.0048
     EDDAV:  cpu time    3.3860: real time    3.3965
       DOS:  cpu time    0.0023: real time    0.0023
    CHARGE:  cpu time    0.0637: real time    0.0638
    MIXING:  cpu time    0.0028: real time    0.0028
    --------------------------------------------
      LOOP:  cpu time    3.5133: real time    3.5241

 eigenvalue-minimisations  :  1392
 total energy-change (2. order) : 0.4653389E+01  (-0.5085636E+01)
 number of electron     813.9997337 magnetization 
 augmentation part      311.9051473 magnetization 

 Broyden mixing:
  rms(total) = 0.89675E+01    rms(broyden)= 0.89622E+01
  rms(prec ) = 0.11134E+02
  weight for this iteration     100.00

 eigenvalues of (default mixing * dielectric matrix)
  average eigenvalue GAMMA=   0.4353
  1.2312  0.3778  0.3778  0.0948  0.0948

 Free energy of the ion-electron system (eV)
  ---------------------------------------------------
  alpha Z        PSCENC =      1458.83996183
  Ewald energy   TEWEN  =    113047.73814505
  -Hartree energ DENC   =   -236504.66708558
  -exchange      EXHF   =         0.00000000
  -V(xc)+E(xc)   XCENC  =      3714.05702905
  PAW double counting   =    128865.19938480  -133953.92622314
  entropy T*S    EENTRO =        -1.88253236
  eigenvalues    EBANDS =    -16775.01520291
  atomic energy  EATOM  =    139780.45519414
  Solvation  Ediel_sol  =         0.00000000
  ---------------------------------------------------
  free energy    TOTEN  =      -369.20132911 eV

  energy without entropy =     -367.31879675  energy(sigma->0) =     -368.26006293


--------------------------------------------------------------------------------------------------------




--------------------------------------- Iteration      1(  11)  ---------------------------------------


    POTLOK:  cpu time    0.0544: real time    0.0567
    SETDIJ:  cpu time    0.0044: real time    0.0062
     EDDAV:  cpu time    3.2272: real time    3.2354
       DOS:  cpu time    0.0010: real time    0.0010
    CHARGE:  cpu time    0.0640: real time    0.0641
    MIXING:  cpu time    0.0026: real time    0.0026
    --------------------------------------------
      LOOP:  cpu time    3.3535: real time    3.3660

 eigenvalue-minimisations  :  1344
 total energy-change (2. order) :-0.1602685E+01  (-0.5443316E+01)
 number of electron     813.9997526 magnetization 
 augmentation part      315.4637058 magnetization 

 Broyden mixing:
  rms(total) = 0.71629E+01    rms(broyden)= 0.71597E+01
  rms(prec ) = 0.85415E+01
  weight for this iteration     100.00

 eigenvalues of (default mixing * dielectric matrix)
  average eigenvalue GAMMA=   0.4608
  1.6548  0.3975  0.3975  0.1186  0.1186  0.0778

 Free energy of the ion-electron system (eV)
  ---------------------------------------------------
  alpha Z        PSCENC =      1458.83996183
  Ewald energy   TEWEN  =    113047.73814505
  -Hartree energ DENC   =   -236459.84419720
  -exchange      EXHF   =         0.00000000
  -V(xc)+E(xc)   XCENC  =      3711.39579106
  PAW double counting   =    130670.20793226  -135769.78893983
  entropy T*S    EENTRO =        -1.57215441
  eigenvalues    EBANDS =    -16808.23574747
  atomic energy  EATOM  =    139780.45519414
  Solvation  Ediel_sol  =         0.00000000
  ---------------------------------------------------
  free energy    TOTEN  =      -370.80401456 eV

  energy without entropy =     -369.23186015  energy(sigma->0) =     -370.01793735


--------------------------------------------------------------------------------------------------------




--------------------------------------- Iteration      1(  12)  ---------------------------------------


    POTLOK:  cpu time    0.0536: real time    0.0537
    SETDIJ:  cpu time    0.0047: real time    0.0047
     EDDAV:  cpu time    3.3491: real time    3.3573
       DOS:  cpu time    0.0010: real time    0.0010
    CHARGE:  cpu time    0.0640: real time    0.0641
    MIXING:  cpu time    0.0027: real time    0.0027
    --------------------------------------------
      LOOP:  cpu time    3.4750: real time    3.4835

 eigenvalue-minimisations  :  1408
 total energy-change (2. order) : 0.4490935E+01  (-0.4127044E+01)
 number of electron     813.9997404 magnetization 
 augmentation part      319.2787091 magnetization 

 Broyden mixing:
  rms(total) = 0.66356E+01    rms(broyden)= 0.66330E+01
  rms(prec ) = 0.79339E+01
  weight for this iteration     100.00

 eigenvalues of (default mixing * dielectric matrix)
  average eigenvalue GAMMA=   0.4284
  1.7648  0.3995  0.3995  0.1423  0.1344  0.0791  0.0791

 Free energy of the ion-electron system (eV)
  ---------------------------------------------------
  alpha Z        PSCENC =      1458.83996183
  Ewald energy   TEWEN  =    113047.73814505
  -Hartree energ DENC   =   -236392.53260156
  -exchange      EXHF   =         0.00000000
  -V(xc)+E(xc)   XCENC  =      3708.74165933
  PAW double counting   =    132320.02482288  -137429.81982262
  entropy T*S    EENTRO =        -1.41794389
  eigenvalues    EBANDS =    -16858.34249472
  atomic energy  EATOM  =    139780.45519414
  Solvation  Ediel_sol  =         0.00000000
  ---------------------------------------------------
  free energy    TOTEN  =      -366.31307955 eV

  energy without entropy =     -364.89513566  energy(sigma->0) =     -365.60410761


--------------------------------------------------------------------------------------------------------




--------------------------------------- Iteration      1(  13)  ---------------------------------------


    POTLOK:  cpu time    0.0533: real time    0.0535
    SETDIJ:  cpu time    0.0048: real time    0.0048
     EDDAV:  cpu time    3.2069: real time    3.2147
       DOS:  cpu time    0.0011: real time    0.0011
    CHARGE:  cpu time    0.0643: real time    0.0644
    MIXING:  cpu time    0.0028: real time    0.0029
    --------------------------------------------
      LOOP:  cpu time    3.3332: real time    3.3413

 eigenvalue-minimisations  :  1336
 total energy-change (2. order) : 0.3200745E+01  (-0.4194455E+01)
 number of electron     813.9997491 magnetization 
 augmentation part      322.0623404 magnetization 

 Broyden mixing:
  rms(total) = 0.37677E+01    rms(broyden)= 0.37669E+01
  rms(prec ) = 0.44954E+01
  weight for this iteration     100.00

 eigenvalues of (default mixing * dielectric matrix)
  average eigenvalue GAMMA=   0.4385
  1.8485  0.4505  0.4098  0.4098  0.1071  0.1071  0.1000  0.0748

 Free energy of the ion-electron system (eV)
  ---------------------------------------------------
  alpha Z        PSCENC =      1458.83996183
  Ewald energy   TEWEN  =    113047.73814505
  -Hartree energ DENC   =   -236379.22753814
  -exchange      EXHF   =         0.00000000
  -V(xc)+E(xc)   XCENC  =      3707.95100896
  PAW double counting   =    132750.82923510  -137863.82586210
  entropy T*S    EENTRO =        -1.24687346
  eigenvalues    EBANDS =    -16864.62560619
  atomic energy  EATOM  =    139780.45519414
  Solvation  Ediel_sol  =         0.00000000
  ---------------------------------------------------
  free energy    TOTEN  =      -363.11233482 eV

  energy without entropy =     -361.86546136  energy(sigma->0) =     -362.48889809


--------------------------------------------------------------------------------------------------------




--------------------------------------- Iteration      1(  14)  ---------------------------------------


    POTLOK:  cpu time    0.0533: real time    0.0534
    SETDIJ:  cpu time    0.0047: real time    0.0048
     EDDAV:  cpu time    3.1014: real time    3.1090
       DOS:  cpu time    0.0010: real time    0.0010
    CHARGE:  cpu time    0.0644: real time    0.0646
    MIXING:  cpu time    0.0030: real time    0.0030
    --------------------------------------------
      LOOP:  cpu time    3.2278: real time    3.2356

 eigenvalue-minimisations  :  1280
 total energy-change (2. order) : 0.3787115E+01  (-0.1596488E+01)
 number of electron     813.9997497 magnetization 
 augmentation part      322.5865842 magnetization 

 Broyden mixing:
  rms(total) = 0.37182E+01    rms(broyden)= 0.37165E+01
  rms(prec ) = 0.45771E+01
  weight for this iteration     100.00

 eigenvalues of (default mixing * dielectric matrix)
  average eigenvalue GAMMA=   0.4240
  1.8384  0.5601  0.4238  0.4238  0.1424  0.1247  0.1247  0.0981  0.0798

 Free energy of the ion-electron system (eV)
  ---------------------------------------------------
  alpha Z        PSCENC =      1458.83996183
  Ewald energy   TEWEN  =    113047.73814505
  -Hartree energ DENC   =   -236396.87293731
  -exchange      EXHF   =         0.00000000
  -V(xc)+E(xc)   XCENC  =      3708.16848884
  PAW double counting   =    133164.09446634  -138283.35338332
  entropy T*S    EENTRO =        -1.21189440
  eigenvalues    EBANDS =    -16837.18326134
  atomic energy  EATOM  =    139780.45519414
  Solvation  Ediel_sol  =         0.00000000
  ---------------------------------------------------
  free energy    TOTEN  =      -359.32522016 eV

  energy without entropy =     -358.11332576  energy(sigma->0) =     -358.71927296


--------------------------------------------------------------------------------------------------------




--------------------------------------- Iteration      1(  15)  ---------------------------------------


    POTLOK:  cpu time    0.0536: real time    0.0537
    SETDIJ:  cpu time    0.0046: real time    0.0046
     EDDAV:  cpu time    3.2403: real time    3.2482
       DOS:  cpu time    0.0011: real time    0.0011
    CHARGE:  cpu time    0.0629: real time    0.0631
    MIXING:  cpu time    0.0031: real time    0.0031
    --------------------------------------------
      LOOP:  cpu time    3.3656: real time    3.3738

 eigenvalue-minimisations  :  1352
 total energy-change (2. order) : 0.1326338E+01  (-0.1334513E+01)
 number of electron     813.9997451 magnetization 
 augmentation part      321.8877280 magnetization 

 Broyden mixing:
  rms(total) = 0.37449E+01    rms(broyden)= 0.37425E+01
  rms(prec ) = 0.45918E+01
  weight for this iteration     100.00

 eigenvalues of (default mixing * dielectric matrix)
  average eigenvalue GAMMA=   0.4042
  1.8283  0.5617  0.4426  0.4426  0.2548  0.1097  0.1097  0.1092  0.1065  0.0766

 Free energy of the ion-electron system (eV)
  ---------------------------------------------------
  alpha Z        PSCENC =      1458.83996183
  Ewald energy   TEWEN  =    113047.73814505
  -Hartree energ DENC   =   -236420.33821628
  -exchange      EXHF   =         0.00000000
  -V(xc)+E(xc)   XCENC  =      3708.85256754
  PAW double counting   =    133138.23544234  -138259.40053842
  entropy T*S    EENTRO =        -1.22002125
  eigenvalues    EBANDS =    -16811.16141727
  atomic energy  EATOM  =    139780.45519414
  Solvation  Ediel_sol  =         0.00000000
  ---------------------------------------------------
  free energy    TOTEN  =      -357.99888231 eV

  energy without entropy =     -356.77886106  energy(sigma->0) =     -357.38887168


--------------------------------------------------------------------------------------------------------




--------------------------------------- Iteration      1(  16)  ---------------------------------------


    POTLOK:  cpu time    0.0535: real time    0.0536
    SETDIJ:  cpu time    0.0046: real time    0.0046
     EDDAV:  cpu time    3.0891: real time    3.0976
       DOS:  cpu time    0.0006: real time    0.0006
    CHARGE:  cpu time    0.0636: real time    0.0637
    MIXING:  cpu time    0.0034: real time    0.0034
    --------------------------------------------
      LOOP:  cpu time    3.2149: real time    3.2237

 eigenvalue-minimisations  :  1296
 total energy-change (2. order) : 0.3206627E+01  (-0.8266749E+00)
 number of electron     813.9997482 magnetization 
 augmentation part      322.4695133 magnetization 

 Broyden mixing:
  rms(total) = 0.25354E+01    rms(broyden)= 0.25335E+01
  rms(prec ) = 0.30674E+01
  weight for this iteration     100.00

 eigenvalues of (default mixing * dielectric matrix)
  average eigenvalue GAMMA=   0.3856
  1.8312  0.4922  0.4922  0.3750  0.3750  0.1908  0.1105  0.1105  0.0777  0.0934
  0.0934

 Free energy of the ion-electron system (eV)
  ---------------------------------------------------
  alpha Z        PSCENC =      1458.83996183
  Ewald energy   TEWEN  =    113047.73814505
  -Hartree energ DENC   =   -236442.31118418
  -exchange      EXHF   =         0.00000000
  -V(xc)+E(xc)   XCENC  =      3709.09446578
  PAW double counting   =    133105.80838916  -138227.20654428
  entropy T*S    EENTRO =        -1.19733968
  eigenvalues    EBANDS =    -16786.01334322
  atomic energy  EATOM  =    139780.45519414
  Solvation  Ediel_sol  =         0.00000000
  ---------------------------------------------------
  free energy    TOTEN  =      -354.79225540 eV

  energy without entropy =     -353.59491572  energy(sigma->0) =     -354.19358556


--------------------------------------------------------------------------------------------------------




--------------------------------------- Iteration      1(  17)  ---------------------------------------


    POTLOK:  cpu time    0.0540: real time    0.0555
    SETDIJ:  cpu time    0.0041: real time    0.0059
     EDDAV:  cpu time    3.0675: real time    3.0748
       DOS:  cpu time    0.0006: real time    0.0006
    CHARGE:  cpu time    0.0631: real time    0.0632
    MIXING:  cpu time    0.0034: real time    0.0034
    --------------------------------------------
      LOOP:  cpu time    3.1926: real time    3.2034

 eigenvalue-minimisations  :  1296
 total energy-change (2. order) : 0.1608290E+01  (-0.2512354E+00)
 number of electron     813.9997467 magnetization 
 augmentation part      322.2931689 magnetization 

 Broyden mixing:
  rms(total) = 0.19226E+01    rms(broyden)= 0.19217E+01
  rms(prec ) = 0.23547E+01
  weight for this iteration     100.00

 eigenvalues of (default mixing * dielectric matrix)
  average eigenvalue GAMMA=   0.4071
  1.8270  0.6924  0.6924  0.4017  0.4017  0.2272  0.1457  0.1149  0.1149  0.0767
  0.0954  0.0954

 Free energy of the ion-electron system (eV)
  ---------------------------------------------------
  alpha Z        PSCENC =      1458.83996183
  Ewald energy   TEWEN  =    113047.73814505
  -Hartree energ DENC   =   -236455.94590717
  -exchange      EXHF   =         0.00000000
  -V(xc)+E(xc)   XCENC  =      3709.49027767
  PAW double counting   =    133052.72196658  -138174.16173752
  entropy T*S    EENTRO =        -1.23712538
  eigenvalues    EBANDS =    -16771.08474094
  atomic energy  EATOM  =    139780.45519414
  Solvation  Ediel_sol  =         0.00000000
  ---------------------------------------------------
  free energy    TOTEN  =      -353.18396573 eV

  energy without entropy =     -351.94684035  energy(sigma->0) =     -352.56540304


--------------------------------------------------------------------------------------------------------




--------------------------------------- Iteration      1(  18)  ---------------------------------------


    POTLOK:  cpu time    0.0535: real time    0.0536
    SETDIJ:  cpu time    0.0047: real time    0.0047
     EDDAV:  cpu time    3.0825: real time    3.0903
       DOS:  cpu time    0.0006: real time    0.0006
    CHARGE:  cpu time    0.0631: real time    0.0633
    MIXING:  cpu time    0.0034: real time    0.0035
    --------------------------------------------
      LOOP:  cpu time    3.2078: real time    3.2160

 eigenvalue-minimisations  :  1304
 total energy-change (2. order) : 0.1133149E+01  (-0.1472241E+00)
 number of electron     813.9997467 magnetization 
 augmentation part      321.5614683 magnetization 

 Broyden mixing:
  rms(total) = 0.16285E+01    rms(broyden)= 0.16277E+01
  rms(prec ) = 0.20580E+01
  weight for this iteration     100.00

 eigenvalues of (default mixing * dielectric matrix)
  average eigenvalue GAMMA=   0.4071
  1.8457  0.7606  0.7606  0.3988  0.3988  0.2878  0.2074  0.1135  0.1135  0.1364
  0.0771  0.0958  0.0958

 Free energy of the ion-electron system (eV)
  ---------------------------------------------------
  alpha Z        PSCENC =      1458.83996183
  Ewald energy   TEWEN  =    113047.73814505
  -Hartree energ DENC   =   -236486.08785751
  -exchange      EXHF   =         0.00000000
  -V(xc)+E(xc)   XCENC  =      3710.10556091
  PAW double counting   =    132904.03471447  -138023.43382242
  entropy T*S    EENTRO =        -1.26978194
  eigenvalues    EBANDS =    -16742.43293164
  atomic energy  EATOM  =    139780.45519414
  Solvation  Ediel_sol  =         0.00000000
  ---------------------------------------------------
  free energy    TOTEN  =      -352.05081710 eV

  energy without entropy =     -350.78103516  energy(sigma->0) =     -351.41592613


--------------------------------------------------------------------------------------------------------




--------------------------------------- Iteration      1(  19)  ---------------------------------------


    POTLOK:  cpu time    0.0535: real time    0.0536
    SETDIJ:  cpu time    0.0047: real time    0.0047
     EDDAV:  cpu time    3.0982: real time    3.1057
       DOS:  cpu time    0.0007: real time    0.0007
    CHARGE:  cpu time    0.0628: real time    0.0629
    MIXING:  cpu time    0.0036: real time    0.0036
    --------------------------------------------
      LOOP:  cpu time    3.2234: real time    3.2312

 eigenvalue-minimisations  :  1312
 total energy-change (2. order) : 0.2808728E+00  (-0.1454521E+00)
 number of electron     813.9997468 magnetization 
 augmentation part      321.4299524 magnetization 

 Broyden mixing:
  rms(total) = 0.14594E+01    rms(broyden)= 0.14584E+01
  rms(prec ) = 0.17530E+01
  weight for this iteration     100.00

 eigenvalues of (default mixing * dielectric matrix)
  average eigenvalue GAMMA=   0.4413
  1.9098  0.9702  0.9702  0.5012  0.4245  0.4245  0.2231  0.1511  0.1137  0.1137
  0.0770  0.1091  0.0950  0.0950

 Free energy of the ion-electron system (eV)
  ---------------------------------------------------
  alpha Z        PSCENC =      1458.83996183
  Ewald energy   TEWEN  =    113047.73814505
  -Hartree energ DENC   =   -236496.43045806
  -exchange      EXHF   =         0.00000000
  -V(xc)+E(xc)   XCENC  =      3710.18662380
  PAW double counting   =    132862.95825870  -137980.85452928
  entropy T*S    EENTRO =        -1.33107551
  eigenvalues    EBANDS =    -16733.33206493
  atomic energy  EATOM  =    139780.45519414
  Solvation  Ediel_sol  =         0.00000000
  ---------------------------------------------------
  free energy    TOTEN  =      -351.76994425 eV

  energy without entropy =     -350.43886874  energy(sigma->0) =     -351.10440650


--------------------------------------------------------------------------------------------------------




--------------------------------------- Iteration      1(  20)  ---------------------------------------


    POTLOK:  cpu time    0.0534: real time    0.0535
    SETDIJ:  cpu time    0.0047: real time    0.0047
     EDDAV:  cpu time    3.1474: real time    3.1551
       DOS:  cpu time    0.0006: real time    0.0006
    CHARGE:  cpu time    0.0627: real time    0.0630
    MIXING:  cpu time    0.0036: real time    0.0037
    --------------------------------------------
      LOOP:  cpu time    3.2724: real time    3.2806

 eigenvalue-minimisations  :  1336
 total energy-change (2. order) : 0.3479001E+00  (-0.1117049E+00)
 number of electron     813.9997459 magnetization 
 augmentation part      321.3887214 magnetization 

 Broyden mixing:
  rms(total) = 0.13026E+01    rms(broyden)= 0.13015E+01
  rms(prec ) = 0.16033E+01
  weight for this iteration     100.00

 eigenvalues of (default mixing * dielectric matrix)
  average eigenvalue GAMMA=   0.4404
  1.9373  1.0802  1.0802  0.5132  0.4297  0.4297  0.2433  0.1661  0.1139  0.1139
  0.1312  0.0770  0.0976  0.0976  0.0953

 Free energy of the ion-electron system (eV)
  ---------------------------------------------------
  alpha Z        PSCENC =      1458.83996183
  Ewald energy   TEWEN  =    113047.73814505
  -Hartree energ DENC   =   -236503.90190123
  -exchange      EXHF   =         0.00000000
  -V(xc)+E(xc)   XCENC  =      3710.27455202
  PAW double counting   =    132862.59290707  -137978.19958047
  entropy T*S    EENTRO =        -1.34175477
  eigenvalues    EBANDS =    -16727.87956775
  atomic energy  EATOM  =    139780.45519414
  Solvation  Ediel_sol  =         0.00000000
  ---------------------------------------------------
  free energy    TOTEN  =      -351.42204411 eV

  energy without entropy =     -350.08028934  energy(sigma->0) =     -350.75116672


--------------------------------------------------------------------------------------------------------




--------------------------------------- Iteration      1(  21)  ---------------------------------------


    POTLOK:  cpu time    0.0537: real time    0.0539
    SETDIJ:  cpu time    0.0046: real time    0.0047
     EDDAV:  cpu time    3.1081: real time    3.1157
       DOS:  cpu time    0.0008: real time    0.0008
    CHARGE:  cpu time    0.0620: real time    0.0622
    MIXING:  cpu time    0.0039: real time    0.0039
    --------------------------------------------
      LOOP:  cpu time    3.2331: real time    3.2411

 eigenvalue-minimisations  :  1344
 total energy-change (2. order) : 0.4363381E+00  (-0.6677836E-01)
 number of electron     813.9997459 magnetization 
 augmentation part      321.3276155 magnetization 

 Broyden mixing:
  rms(total) = 0.89221E+00    rms(broyden)= 0.89128E+00
  rms(prec ) = 0.10849E+01
  weight for this iteration     100.00

 eigenvalues of (default mixing * dielectric matrix)
  average eigenvalue GAMMA=   0.4425
  1.9415  1.1638  1.1638  0.4648  0.4648  0.4007  0.4007  0.2170  0.1140  0.1140
  0.1352  0.1352  0.0770  0.0959  0.0959  0.0953

 Free energy of the ion-electron system (eV)
  ---------------------------------------------------
  alpha Z        PSCENC =      1458.83996183
  Ewald energy   TEWEN  =    113047.73814505
  -Hartree energ DENC   =   -236512.00078231
  -exchange      EXHF   =         0.00000000
  -V(xc)+E(xc)   XCENC  =      3710.37943943
  PAW double counting   =    132828.89912109  -137942.98025048
  entropy T*S    EENTRO =        -1.38365759
  eigenvalues    EBANDS =    -16720.93287719
  atomic energy  EATOM  =    139780.45519414
  Solvation  Ediel_sol  =         0.00000000
  ---------------------------------------------------
  free energy    TOTEN  =      -350.98570602 eV

  energy without entropy =     -349.60204843  energy(sigma->0) =     -350.29387723


--------------------------------------------------------------------------------------------------------




--------------------------------------- Iteration      1(  22)  ---------------------------------------


    POTLOK:  cpu time    0.0539: real time    0.0541
[...]
  Alpha Z  1458.83996  1458.83996  1458.83996
  Ewald  158466.42451163224.81338************  -406.03448   179.08022  -357.66523
  Hartree195559.79763200078.80385************  -325.23214    96.47344  -455.34088
  E(xc)   -5156.91745 -5157.02472 -5162.81558    -0.05632     0.31371     0.63304
  Local  ************************354796.55187   730.82357  -271.46276   824.76072
  n-local  -718.08178  -724.81739  -728.95714    -0.38050     1.12552     3.73427
  augment  5941.83933  5951.25760  5956.49496     0.24820    -1.43585    -6.88758
  Kinetic 11248.23063 11243.79369 11260.88593    -0.99690    -5.14270   -22.19676
  Fock        0.00000     0.00000     0.00000     0.00000     0.00000     0.00000
  -------------------------------------------------------------------------------------
  Total     -41.81696   -42.51709   -63.24883    -1.62857    -1.04840   -12.96242
  in kB     -24.87374   -25.29019   -37.62193    -0.96871    -0.62362    -7.71036
  external pressure =      -29.26 kB  Pullay stress =        0.00 kB


 VOLUME and BASIS-vectors are now :
 -----------------------------------------------------------------------------
  energy-cutoff  :      450.00
  volume of cell :     2693.53
      direct lattice vectors                 reciprocal lattice vectors
    16.884694054  0.000000000  0.000000000     0.059225237  0.000000000  0.000000000
     0.000000000  9.578410000  0.000000000     0.000000000  0.104401461  0.000000000
     0.000000000  0.000000000 16.654645685     0.000000000  0.000000000  0.060043307

  length of vectors
    16.884694054  9.578410000 16.654645685     0.059225237  0.104401461  0.060043307


 FORCES acting on ions
    electron-ion (+dipol)            ewald-force                    non-local-force                 convergence-correction
 -----------------------------------------------------------------------------------------------
   0.290E+02 -.263E+03 0.156E+04   -.288E+02 0.265E+03 -.156E+04   0.823E+00 -.151E+01 0.486E+01   -.235E+00 -.927E-01 -.249E-01
   0.488E+03 -.519E+02 -.265E+04   -.489E+03 0.536E+02 0.264E+04   0.298E+00 -.139E+01 0.710E+01   0.712E-01 -.650E-01 -.316E-01
   0.702E+03 0.826E+01 0.307E+04   -.704E+03 -.826E+01 -.306E+04   0.201E+01 -.213E-01 -.178E+01   -.605E-01 0.188E-01 -.102E+00
   0.450E+03 0.490E+01 -.671E+03   -.451E+03 -.503E+01 0.673E+03   0.129E+01 -.877E-02 -.117E+01   0.374E-01 0.137E+00 0.191E+00
   0.363E+03 -.323E+01 0.268E+04   -.366E+03 0.321E+01 -.268E+04   0.223E+01 0.837E-02 -.103E+01   0.375E+00 -.260E-02 -.145E+00
   0.109E+03 -.295E+01 -.142E+04   -.110E+03 0.306E+01 0.142E+04   0.694E+00 0.709E-03 -.347E+01   0.145E+00 -.109E+00 -.148E+00
   0.765E+03 0.165E+03 0.109E+04   -.766E+03 -.166E+03 -.110E+04   0.140E+01 0.884E+00 0.479E+01   -.319E+00 0.150E-01 0.102E+00
   0.762E+03 0.299E+02 -.307E+04   -.763E+03 -.299E+02 0.306E+04   0.950E-01 -.791E-01 0.709E+01   -.178E+00 0.110E+00 -.146E-01
   0.429E+03 -.722E+02 0.333E+04   -.420E+03 0.719E+02 -.331E+04   -.772E+01 0.311E+00 -.127E+02   -.542E-01 0.436E-02 -.147E+00
   0.789E+03 -.488E+02 0.371E+03   -.792E+03 0.486E+02 -.373E+03   0.287E+01 0.834E-01 0.180E+01   -.101E+00 -.769E-01 0.175E+00
   0.625E+03 -.784E+01 -.337E+04   -.625E+03 0.805E+01 0.336E+04   -.623E+00 -.194E-02 0.579E+01   -.195E+00 -.214E+00 0.199E+00
   0.211E+03 0.134E+02 -.169E+04   -.211E+03 -.134E+02 0.169E+04   0.131E+00 0.116E-02 -.289E+01   0.174E+00 0.836E-01 -.127E+00
   -.150E+03 -.125E+03 0.226E+04   0.151E+03 0.119E+03 -.226E+04   -.647E+00 0.492E+01 0.826E+00   -.303E+00 -.134E+00 0.108E+00
   0.130E+03 0.350E+03 -.195E+04   -.128E+03 -.346E+03 0.195E+04   -.174E+01 -.291E+01 0.667E+00   -.719E-01 -.896E-01 0.105E+00
   -.401E+03 0.579E+03 0.335E+04   0.397E+03 -.567E+03 -.334E+04   0.297E+01 -.103E+02 -.688E+01   0.318E+00 -.222E+00 -.183E+00
   -.575E+03 0.401E+03 0.104E+03   0.574E+03 -.403E+03 -.105E+03   -.292E-01 0.121E+01 0.574E+00   0.256E+00 -.414E-01 0.100E-01
   -.317E+03 0.338E+03 -.330E+04   0.315E+03 -.337E+03 0.329E+04   0.239E+01 -.646E+00 0.881E+01   0.120E+00 0.206E+00 0.155E+00
   -.574E+03 0.658E+03 0.308E+04   0.569E+03 -.648E+03 -.307E+04   0.511E+01 -.986E+01 -.622E+01   0.992E-01 0.153E+00 -.683E-01
   -.565E+03 0.446E+03 -.787E+03   0.567E+03 -.448E+03 0.789E+03   -.151E+01 0.192E+01 -.202E+01   0.639E-01 -.689E-01 -.193E+00
   0.202E+03 0.544E+03 0.169E+04   -.203E+03 -.546E+03 -.170E+04   0.917E+00 0.160E+01 0.500E+01   -.249E+00 0.508E-01 0.728E-01
   0.537E+02 0.441E+03 -.246E+04   -.506E+02 -.437E+03 0.246E+04   -.207E+01 -.300E+01 -.162E+01   -.138E+00 0.123E+00 0.833E-01
   -.121E+03 0.384E+03 0.102E+04   0.122E+03 -.384E+03 -.103E+04   -.570E+00 0.329E+00 0.349E+01   0.155E+00 -.358E-01 0.696E-01
   -.389E+03 0.435E+03 -.300E+04   0.386E+03 -.432E+03 0.299E+04   0.249E+01 -.292E+01 0.495E+01   0.493E-01 -.283E+00 0.133E+00
   -.318E+02 0.170E+03 0.268E+04   0.351E+02 -.176E+03 -.267E+04   -.268E+01 0.456E+01 -.305E+01   -.727E-01 0.315E+00 0.238E-01
   -.284E+03 0.487E+03 -.125E+04   0.284E+03 -.490E+03 0.126E+04   0.321E+00 0.221E+01 -.275E+01   0.248E-01 0.177E+00 -.116E+00
   0.165E+03 -.449E+03 -.177E+04   -.163E+03 0.446E+03 0.176E+04   -.988E+00 0.235E+01 0.105E+01   -.849E-01 -.421E-01 0.651E-01
   -.402E+03 -.575E+03 0.335E+04   0.398E+03 0.564E+03 -.334E+04   0.300E+01 0.104E+02 -.689E+01   0.311E+00 0.238E+00 -.160E+00
   -.574E+03 -.398E+03 0.104E+03   0.573E+03 0.399E+03 -.104E+03   -.122E-01 -.123E+01 0.591E+00   0.217E+00 0.164E+00 0.137E+00
   -.316E+03 -.336E+03 -.331E+04   0.314E+03 0.335E+03 0.329E+04   0.234E+01 0.578E+00 0.877E+01   0.419E-01 0.958E-01 0.149E+00
   -.590E+03 -.671E+03 0.308E+04   0.585E+03 0.661E+03 -.307E+04   0.501E+01 0.979E+01 -.620E+01   0.442E-01 -.171E+00 -.100E+00
   -.584E+03 -.462E+03 -.779E+03   0.586E+03 0.464E+03 0.782E+03   -.136E+01 -.184E+01 -.211E+01   0.636E-01 -.331E-01 -.218E+00
   0.920E+02 -.420E+03 0.167E+04   -.918E+02 0.422E+03 -.168E+04   0.162E+00 -.154E+01 0.461E+01   -.231E+00 -.688E-01 0.148E+00
   0.339E+02 -.416E+03 -.248E+04   -.308E+02 0.412E+03 0.248E+04   -.213E+01 0.302E+01 -.169E+01   -.795E-01 0.119E+00 0.134E+00
   -.105E+03 -.397E+03 0.103E+04   0.106E+03 0.397E+03 -.103E+04   -.643E+00 -.321E+00 0.353E+01   0.131E+00 -.870E-01 -.776E-01
   -.385E+03 -.439E+03 -.299E+04   0.382E+03 0.436E+03 0.299E+04   0.242E+01 0.296E+01 0.494E+01   0.360E-01 -.116E+00 0.122E+00
   0.792E+02 -.485E+02 0.270E+04   -.760E+02 0.521E+02 -.269E+04   -.267E+01 -.317E+01 -.407E+01   -.719E-01 -.378E-01 0.240E-02
   -.230E+03 -.406E+03 -.131E+04   0.229E+03 0.407E+03 0.132E+04   0.788E+00 -.134E+01 -.288E+01   0.103E-01 -.652E-01 -.206E+00
   0.163E+03 -.814E+01 -.127E+04   -.163E+03 0.813E+01 0.128E+04   -.566E+00 0.102E+00 -.369E+01   -.673E-01 -.396E-01 0.272E-01
   0.739E+02 -.121E+03 0.343E+03   -.730E+02 0.124E+03 -.345E+03   -.927E+00 -.271E+01 0.207E+01   -.941E-01 -.106E-01 0.112E+00
   -.530E+03 0.148E+01 0.840E+03   0.537E+03 -.152E+01 -.840E+03   -.761E+01 0.306E-01 -.130E+01   0.164E+00 0.145E-01 -.672E-02
   -.289E+03 0.129E+01 -.483E+03   0.290E+03 -.137E+01 0.482E+03   -.133E+01 0.167E-01 0.147E+01   0.520E-01 0.689E-01 0.410E-01
   -.274E+03 -.122E+02 0.631E+03   0.276E+03 0.121E+02 -.632E+03   -.312E+01 0.905E-01 -.307E+00   -.432E-01 -.188E-01 -.102E+00
   -.739E+02 -.660E+01 -.104E+04   0.734E+02 0.670E+01 0.105E+04   0.798E+00 -.619E-01 -.465E+01   -.764E-02 -.177E-01 -.135E-01
   0.158E+03 0.140E+02 0.137E+04   -.159E+03 -.138E+02 -.137E+04   0.218E+01 -.199E+00 0.505E+01   -.836E-01 -.150E-01 -.536E-01
   -.824E+02 0.788E+01 -.430E+02   0.849E+02 -.790E+01 0.407E+02   -.258E+01 -.782E-02 0.229E+01   -.411E-01 0.372E-01 0.645E-01
   -.135E+03 0.152E+01 -.137E+04   0.138E+03 -.163E+01 0.137E+04   -.479E+01 0.471E-01 -.355E+01   0.313E-03 0.673E-01 0.792E-01
   0.552E+02 -.219E+01 0.124E+04   -.566E+02 0.224E+01 -.124E+04   0.259E+01 -.141E-01 0.459E+01   0.136E+00 -.172E-01 -.412E-01
   -.205E+03 -.112E+01 -.299E+03   0.207E+03 0.124E+01 0.299E+03   -.205E+01 -.328E-01 0.162E+01   0.833E-01 -.966E-01 -.463E-01
   -.124E+03 0.501E+02 0.488E+03   0.125E+03 -.500E+02 -.488E+03   -.236E+01 -.204E+00 -.447E+00   -.905E-01 0.678E-01 -.303E-01
   0.499E+02 0.123E+02 -.117E+04   -.499E+02 -.124E+02 0.117E+04   -.597E-01 0.305E-01 -.446E+01   -.509E-01 0.230E-01 -.440E-01
   -.163E+03 -.259E+02 0.121E+04   0.164E+03 0.260E+02 -.121E+04   -.185E+01 0.690E+00 0.422E+01   -.852E-01 0.320E-01 -.103E-01
   0.403E+01 -.123E+03 0.223E+02   -.357E+01 0.124E+03 -.235E+02   -.444E+00 -.157E+01 0.276E+01   -.265E-01 0.527E-01 -.808E-02
   0.109E+03 -.182E+03 0.606E+03   -.110E+03 0.183E+03 -.606E+03   0.125E+01 -.178E+01 -.105E+01   0.377E-01 0.866E-01 0.641E-01
   0.618E+02 -.173E+02 -.898E+03   -.635E+02 0.176E+02 0.899E+03   0.206E+01 -.279E+00 -.224E+00   0.549E-01 0.302E-01 0.915E-01
   -.358E+02 -.175E+03 0.353E+03   0.343E+02 0.177E+03 -.352E+03   0.142E+01 -.205E+01 -.157E+01   0.991E-01 -.906E-01 -.116E+00
   -.188E+03 0.641E+02 -.117E+04   0.189E+03 -.649E+02 0.117E+04   -.110E+01 0.559E+00 -.368E+01   0.540E-01 -.275E-01 0.178E-01
   0.208E+03 -.152E+03 -.337E+03   -.209E+03 0.154E+03 0.338E+03   0.152E+01 -.212E+01 0.876E+00   -.920E-01 0.120E-01 0.494E-01
   0.148E+03 -.117E+02 0.124E+04   -.149E+03 0.110E+02 -.125E+04   0.886E+00 0.139E+01 0.586E+01   -.124E+00 -.782E-01 0.148E-01
   0.145E+03 -.103E+03 0.991E+03   -.144E+03 0.104E+03 -.994E+03   -.104E+01 -.186E+01 0.141E+01   -.513E-02 0.652E-01 0.238E-01
   0.162E+03 -.159E+03 -.539E+03   -.163E+03 0.162E+03 0.539E+03   0.166E+01 -.252E+01 0.149E+01   -.835E-01 -.797E-02 0.148E-01
   0.811E+02 -.256E+01 0.248E+03   -.834E+02 0.241E+01 -.249E+03   0.273E+01 -.544E-01 0.105E+01   0.113E+00 -.172E-01 -.115E+00
   -.441E+02 -.159E+03 -.131E+04   0.435E+02 0.161E+03 0.132E+04   0.788E+00 -.318E+01 -.455E+01   0.251E-01 -.690E-02 -.157E-01
   0.112E+03 0.184E+03 0.607E+03   -.113E+03 -.185E+03 -.607E+03   0.124E+01 0.173E+01 -.982E+00   0.366E-01 -.562E-01 0.249E-01
   0.627E+02 0.180E+02 -.897E+03   -.643E+02 -.185E+02 0.898E+03   0.207E+01 0.269E+00 -.219E+00   0.530E-01 0.875E-01 0.306E-01
   0.620E+01 0.448E+01 0.131E+04   -.655E+01 -.425E+01 -.131E+04   0.585E+00 -.556E+00 0.493E+01   -.153E+00 -.131E+00 0.313E-02
   0.103E+03 0.100E+03 -.122E+03   -.104E+03 -.101E+03 0.123E+03   0.186E+01 0.145E+01 0.283E+00   -.418E-01 -.928E-01 0.674E-02
   0.239E+03 0.196E+03 -.290E+03   -.240E+03 -.197E+03 0.290E+03   0.127E+01 0.172E+01 0.780E+00   -.108E+00 0.247E-01 -.123E-01
   0.248E+03 0.210E+03 0.118E+04   -.250E+03 -.212E+03 -.118E+04   0.174E+01 0.204E+01 0.386E+01   -.908E-01 0.619E-01 0.321E-01
   -.334E+02 0.174E+03 0.353E+03   0.320E+02 -.175E+03 -.352E+03   0.132E+01 0.202E+01 -.158E+01   0.825E-01 0.645E-01 -.764E-01
   -.186E+03 -.650E+02 -.117E+04   0.187E+03 0.659E+02 0.117E+04   -.109E+01 -.646E+00 -.370E+01   -.318E-02 -.565E-01 0.364E-01
   0.630E+02 0.139E+02 0.254E+03   -.652E+02 -.138E+02 -.255E+03   0.274E+01 0.100E+00 0.117E+01   0.597E-01 0.336E-01 -.651E-01
   -.487E+02 0.163E+03 -.131E+04   0.481E+02 -.166E+03 0.131E+04   0.738E+00 0.322E+01 -.449E+01   0.332E-01 0.187E-01 0.246E-02
   0.107E+03 0.898E+02 0.993E+03   -.107E+03 -.912E+02 -.995E+03   -.967E+00 0.201E+01 0.138E+01   0.296E-01 -.458E-01 0.410E-01
   0.152E+03 0.155E+03 -.545E+03   -.154E+03 -.157E+03 0.545E+03   0.172E+01 0.247E+01 0.146E+01   -.135E-01 -.579E-01 0.792E-01
 -----------------------------------------------------------------------------------------------
   -.158E+02 -.519E+01 -.183E+02   0.225E-11 -.117E-11 0.978E-11   0.156E+02 0.518E+01 0.180E+02   0.108E+00 -.790E-01 0.222E+00
 
 
 POSITION                                       TOTAL-FORCE (eV/Angst)
 -----------------------------------------------------------------------------------
     13.17084      1.39171      2.05636         0.703600      0.349568     -0.306844
     13.75451      1.39171      5.14091        -1.050844      0.207209     -1.643871
      4.43666      6.18092      0.51409        -0.272136     -0.003164      1.106678
      5.02033      6.18092      3.59863         0.080248      0.001832      0.229518
      7.34806      1.39171      1.02818        -0.341766     -0.008945      0.832645
      7.93172      1.39171      4.11272        -0.170293     -0.001443      0.168667
     16.08224      6.18092      2.57045        -0.104599     -0.088130     -0.328565
     16.66591      6.18092      5.65500        -1.085964     -0.000340     -1.513705
      1.52527      1.39171      0.00000         0.864794     -0.047650      2.190810
      2.10894      1.39171      3.08454        -0.256000     -0.143500      0.119957
      2.69261      1.39171      6.16909        -0.696235      0.002254     -1.518705
     10.84312      6.18092      4.62682         0.037385      0.013116      0.470649
     15.32426      0.12638      1.64888        -0.245539     -0.727659      0.501963
     15.90793      0.12638      4.73343         0.797925      0.546427     -0.629016
      6.59008      4.91558      0.10661         0.031686      0.760618      1.832142
      7.17375      4.91558      3.19116        -0.120889     -0.167752     -0.119158
      7.75741      4.91558      6.27570        -0.197164     -0.431150     -2.016256
      9.50147      0.12638      0.62070        -0.298532      0.647133      1.639016
     10.08514      0.12638      3.70525         0.218466     -0.051524      0.173850
      1.35096      4.91558      2.16298        -0.012343     -0.268455     -0.392506
      1.93463      4.91558      5.24752         0.917521      0.625824     -0.113962
      4.26235      0.12638      2.67707         0.307336     -0.002332     -0.264746
      4.84602      0.12638      5.76161        -0.064899     -0.209573     -1.541699
     12.41286      4.91558      1.13479         0.571004     -0.694018      1.056479
     12.99653      4.91558      4.21934         0.090052     -0.251694      0.501534
     15.90793      2.65705      4.73343         0.586972     -0.468365     -0.756149
      6.59008      7.44626      0.10661         0.036330     -0.758668      1.834111
      7.17375      7.44626      3.19116        -0.101250      0.167565     -0.115068
      7.75741      7.44626      6.27570        -0.197992      0.428917     -2.022867
      9.50147      2.65705      0.62070        -0.234369     -0.627580      1.620545
     10.08514      2.65705      3.70525         0.204662      0.066264      0.142350
      1.35096      7.44626      2.16298         0.054600      0.188898     -0.356935
      1.93463      7.44626      5.24752         0.910389     -0.621321     -0.126632
      4.26235      2.65705      2.67707         0.277516      0.017275     -0.256435
      4.84602      2.65705      5.76161        -0.066458      0.219163     -1.527806
     12.41286      7.44626      1.13479         0.401678      0.397159      1.154885
     12.99653      7.44626      4.21934         0.089939      0.104033      0.438953
      0.43949      1.39171      6.14056        -1.024764      0.048984     -0.020632
     16.74052      1.39171      3.05601        -0.120488     -0.498533     -0.273733
      8.00634      6.18092      1.51374        -0.543187      0.003331     -1.691891
      8.59001      6.18092      4.59828        -0.014388      0.005900      1.216019
     10.91773      1.39171      2.02783        -0.531353     -0.001443     -0.952979
     11.50140      1.39171      5.11237         0.246058      0.021785      0.386121
      2.18355      6.18092      0.48556         1.183915     -0.039002      0.305644
      2.76722      6.18092      3.57010        -0.110247      0.002726      0.050973
      3.35089      6.18092      6.65465        -2.021126      0.008201     -1.307463
      5.09494      1.39171      0.99965         1.319804      0.014579     -0.044799
      5.67861      1.39171      4.08419         0.077599     -0.015357      1.178921
     13.82913      6.18092      2.54192        -0.796203     -0.008418     -0.756052
     14.41279      6.18092      5.62646        -0.107904      0.000326     -0.024772
     13.41477      3.00295      0.49033        -0.756545      0.863195      0.385506
     13.99844      3.00295      3.57488        -0.003300     -0.549622      1.561400
      5.26426      7.79215      2.03261        -0.161223     -0.104975     -1.061128
      5.84793      7.79215      5.11715         0.452305      0.055088      0.793688
      8.17565      3.00295      2.54670         0.044932     -0.259854     -0.905402
      8.75932      3.00295      5.63124         0.007895     -0.208350      0.080499
      0.02514      7.79215      4.08897        -0.002142     -0.225649      1.005334
     16.32617      7.79215      1.00443         0.066290      0.629717      0.313460
      2.35287      3.00295      1.51852        -0.751656     -0.510845     -0.637908
      2.93654      3.00295      4.60306         0.116391     -0.121209      0.971778
     11.08705      7.79215      3.06079         0.555345     -0.218899     -0.311321
     11.67072      7.79215      6.14533         0.207589     -0.963761     -1.251986
      5.26426      4.56969      2.03261        -0.169301      0.120313     -1.062337
      5.84793      4.56969      5.11715         0.462001     -0.071391      0.811593
     13.41477      9.35889      0.49033         0.082565     -0.456282      0.448554
     13.99844      9.35889      3.57488         0.213128      0.552586      0.974747
      0.02514      4.56969      4.08897        -0.057847      0.121136      0.888593
     16.32617      4.56969      1.00443         0.231170      0.336780      0.442960
      8.17565      9.35889      2.54670         0.049244      0.237881     -0.892630
      8.75932      9.35889      5.63124         0.008238      0.187509      0.089543
     11.08705      4.56969      3.06079         0.580748      0.212218     -0.235638
     11.67072      4.56969      6.14533         0.186026      0.991973     -1.286693
      2.35287      9.35889      1.51852        -0.739999      0.543558     -0.615313
      2.93654      9.35889      4.60306         0.155595      0.125810      0.963515
 -----------------------------------------------------------------------------------
    total drift:                               -0.094070     -0.094194     -0.055713


--------------------------------------------------------------------------------------------------------



  FREE ENERGIE OF THE ION-ELECTRON SYSTEM (eV)
  ---------------------------------------------------
  free  energy   TOTEN  =      -350.61946028 eV

  energy  without entropy=     -349.16851743  energy(sigma->0) =     -349.89398885
 


--------------------------------------------------------------------------------------------------------


    POTLOK:  cpu time    0.0587: real time    0.0588


--------------------------------------------------------------------------------------------------------


     LOOP+:  cpu time  123.7620: real time  124.1502
    4ORBIT:  cpu time    0.0000: real time    0.0000

 total amount of memory used by VASP MPI-rank0    47785. kBytes
=======================================================================

   base      :      30000. kBytes
   nonlr-proj:       2198. kBytes
   fftplans  :       3870. kBytes
   grid      :       6776. kBytes
   one-center:        101. kBytes
   wavefun   :       4840. kBytes
 
  
  
 General timing and accounting informations for this job:
 ========================================================
  
                  Total CPU time used (sec):      126.262
                            User time (sec):      125.411
                          System time (sec):        0.851
                         Elapsed time (sec):      127.062
  
                   Maximum memory used (kb):      255128.
                   Average memory used (kb):           0.
  
                          Minor page faults:       100309
                          Major page faults:            0
                 Voluntary context switches:          905
