"Millerite NiS"                         
           1
    11.235110    3.690579    0.000000
     0.000000   11.825737    0.000000
     0.000000    0.000000   17.199280
   Ni   S 
    36    36
Direct configuration=     1
   0.42408819  0.19381755  0.12750827
   0.06067372  0.05723204  0.27304429
   0.19725922  0.42064652  0.41858031
   0.11612078  0.13388797  0.05060530
   0.25270629  0.49730245  0.19614131
   0.38929179  0.36071695  0.34167733
   0.05619120  0.32592055  0.12750827
   0.19277671  0.18933504  0.27304429
   0.32936222  0.05274953  0.41858031
   0.92408819  0.19381755  0.12750827
   0.56067372  0.05723204  0.27304429
   0.69725922  0.42064652  0.41858031
   0.61612078  0.13388797  0.05060530
   0.75270629  0.49730245  0.19614131
   0.88929179  0.36071695  0.34167733
   0.55619120  0.32592055  0.12750827
   0.69277671  0.18933504  0.27304429
   0.82936222  0.05274953  0.41858031
   0.42408819  0.69381755  0.12750827
   0.06067372  0.55723204  0.27304429
   0.19725922  0.92064652  0.41858031
   0.11612078  0.63388797  0.05060530
   0.25270629  0.99730245  0.19614131
   0.38929179  0.86071695  0.34167733
   0.05619120  0.82592055  0.12750827
   0.19277671  0.68933504  0.27304429
   0.32936222  0.55274953  0.41858031
   0.92408819  0.69381755  0.12750827
   0.56067372  0.55723204  0.27304429
   0.69725922  0.92064652  0.41858031
   0.61612078  0.63388797  0.05060530
   0.75270629  0.99730245  0.19614131
   0.88929179  0.86071695  0.34167733
   0.55619120  0.82592055  0.12750827
   0.69277671  0.68933504  0.27304429
   0.82936222  0.55274953  0.41858031
   0.10473972  0.31348403  0.00000000
   0.24132523  0.17689852  0.14553601
   0.37791074  0.04031301  0.29107203
   0.36021264  0.38979610  0.09792536
   0.49679815  0.25321059  0.24346138
   0.13338367  0.11662508  0.38899739
   0.43652471  0.14526903  0.00000000
   0.07311023  0.00868353  0.14553601
   0.20969574  0.37209800  0.29107203
   0.60473972  0.31348403  0.00000000
   0.74132523  0.17689852  0.14553601
   0.87791074  0.04031301  0.29107203
   0.86021264  0.38979610  0.09792536
   0.99679815  0.25321059  0.24346138
   0.63338367  0.11662508  0.38899739
   0.93652471  0.14526903  0.00000000
   0.57311023  0.00868353  0.14553601
   0.70969574  0.37209800  0.29107203
   0.10473972  0.81348403  0.00000000
   0.24132523  0.67689852  0.14553601
   0.37791074  0.54031301  0.29107203
   0.36021264  0.88979610  0.09792536
   0.49679815  0.75321059  0.24346138
   0.13338367  0.61662508  0.38899739
   0.43652471  0.64526903  0.00000000
   0.07311023  0.50868353  0.14553601
   0.20969574  0.87209800  0.29107203
   0.60473972  0.81348403  0.00000000
   0.74132523  0.67689852  0.14553601
   0.87791074  0.54031301  0.29107203
   0.86021264  0.88979610  0.09792536
   0.99679815  0.75321059  0.24346138
   0.63338367  0.61662508  0.38899739
   0.93652471  0.64526903  0.00000000
   0.57311023  0.50868353  0.14553601
   0.70969574  0.87209800  0.29107203
