 vasp.6.1.0 28Jan20 (build Mar 31 2020 17:42:31) gamma-only                     
  
 executed on             LinuxIFC date 2020.04.12  15:27:17
 running on   48 total cores
 distrk:  each k-point on   48 cores,    1 groups
 distr:  one band on NCORE=   6 cores,    8 groups


--------------------------------------------------------------------------------------------------------


 INCAR:
 POTCAR:    PAW_PBE Ni_pv 06Sep2000               
 POTCAR:    PAW_PBE S 06Sep2000                   
 POTCAR:    PAW_PBE Ni_pv 06Sep2000               
   VRHFIN =Ni:                                                                                      
   LEXCH  = PE                                                                                      
   EATOM  =  3501.1230 eV,  257.3253 Ry                                                             
                                                                                                    
   TITEL  = PAW_PBE Ni_pv 06Sep2000                                                                 
   LULTRA =        F    use ultrasoft PP ?                                                          
   IUNSCR =        1    unscreen: 0-lin 1-nonlin 2-no                                               
   RPACOR =    1.500    partial core radius                                                         
   POMASS =   58.690; ZVAL   =   16.000    mass and valenz                                          
   RCORE  =    2.000    outmost cutoff radius                                                       
   RWIGS  =    2.000; RWIGS  =    1.058    wigner-seitz radius (au A)                               
   ENMAX  =  367.986; ENMIN  =  275.989 eV                                                          
   RCLOC  =    1.301    cutoff for local pot                                                        
   LCOR   =        T    correct aug charges                                                         
   LPAW   =        T    paw PP                                                                      
   EAUG   =  703.443                                                                                
   DEXC   =    0.000                                                                                
   RMAX   =    2.041    core radius for proj-oper                                                   
   RAUG   =    1.300    factor for augmentation sphere                                              
   RDEP   =    2.103    radius for radial grids                                                     
   RDEPT  =    1.618    core radius for aug-charge                                                  
                                                                                                    
   Atomic configuration                                                                             
    8 entries                                                                                       
     n  l   j            E        occ.                                                              
     1  0  0.50     -8206.4253   2.0000                                                             
     2  0  0.50      -976.1748   2.0000                                                             
     2  1  1.50      -839.0571   6.0000                                                             
     3  0  0.50      -105.9991   2.0000                                                             
     3  1  1.50       -66.4603   6.0000                                                             
     3  2  2.50        -4.6458   9.0000                                                             
     4  0  0.50        -4.4926   1.0000                                                             
     4  3  2.50        -1.3606   0.0000                                                             
   Description                                                                                      
     l       E           TYP  RCUT    TYP  RCUT                                                     
     1    -66.4602962     23  1.700                                                                 
     1     -1.3605826     23  1.700                                                                 
     2     -4.6457867     23  2.000                                                                 
     2     -6.0063693     23  2.000                                                                 
     0     -4.4925576     23  1.900                                                                 
     0     16.3626226     23  1.900                                                                 
  local pseudopotential read in
  partial core-charges read in
  partial kinetic energy density read in
  atomic valenz-charges read in
  non local Contribution for L=           1  read in
    real space projection operators read in
  non local Contribution for L=           1  read in
    real space projection operators read in
  non local Contribution for L=           2  read in
    real space projection operators read in
  non local Contribution for L=           2  read in
    real space projection operators read in
  non local Contribution for L=           0  read in
    real space projection operators read in
  non local Contribution for L=           0  read in
    real space projection operators read in
    PAW grid and wavefunctions read in
 
   number of l-projection  operators is LMAX  =           6
   number of lm-projection operators is LMMAX =          18
 
 POTCAR:    PAW_PBE S 06Sep2000                   
   VRHFIN =S : s2p4                                                                                 
   LEXCH  = PE                                                                                      
   EATOM  =   276.8230 eV,   20.3459 Ry                                                             
                                                                                                    
   TITEL  = PAW_PBE S 06Sep2000                                                                     
   LULTRA =        F    use ultrasoft PP ?                                                          
   IUNSCR =        1    unscreen: 0-lin 1-nonlin 2-no                                               
   RPACOR =    1.500    partial core radius                                                         
   POMASS =   32.066; ZVAL   =    6.000    mass and valenz                                          
   RCORE  =    1.900    outmost cutoff radius                                                       
   RWIGS  =    2.200; RWIGS  =    1.164    wigner-seitz radius (au A)                               
   ENMAX  =  258.689; ENMIN  =  194.016 eV                                                          
   ICORE  =        2    local potential                                                             
   LCOR   =        T    correct aug charges                                                         
   LPAW   =        T    paw PP                                                                      
   EAUG   =  335.092                                                                                
   DEXC   =    0.000                                                                                
   RMAX   =    1.942    core radius for proj-oper                                                   
   RAUG   =    1.300    factor for augmentation sphere                                              
   RDEP   =    1.954    radius for radial grids                                                     
   RDEPT  =    1.744    core radius for aug-charge                                                  
                                                                                                    
   Atomic configuration                                                                             
    6 entries                                                                                       
     n  l   j            E        occ.                                                              
     1  0  0.50     -2405.8406   2.0000                                                             
     2  0  0.50      -211.7007   2.0000                                                             
     2  1  1.50      -156.4958   6.0000                                                             
     3  0  0.50       -17.2562   2.0000                                                             
     3  1  0.50        -7.0085   4.0000                                                             
     3  2  1.50        -6.8029   0.0000                                                             
   Description                                                                                      
     l       E           TYP  RCUT    TYP  RCUT                                                     
     0    -17.2561641     23  1.900                                                                 
     0    -15.8743224     23  1.900                                                                 
     1     -7.0085400     23  1.900                                                                 
     1     -2.7779785     23  1.900                                                                 
     2     -6.8029130     23  1.900                                                                 
  local pseudopotential read in
  partial core-charges read in
  partial kinetic energy density read in
  atomic valenz-charges read in
  non local Contribution for L=           0  read in
    real space projection operators read in
  non local Contribution for L=           0  read in
    real space projection operators read in
  non local Contribution for L=           1  read in
    real space projection operators read in
  non local Contribution for L=           1  read in
    real space projection operators read in
    PAW grid and wavefunctions read in
 
   number of l-projection  operators is LMAX  =           4
   number of lm-projection operators is LMMAX =           8
 
 Optimization of the real space projectors (new method)

 maximal supplied QI-value         = 18.90
 optimisation between [QCUT,QGAM] = [ 10.77, 21.73] = [ 32.49,132.25] Ry 
 Optimized for a Real-space Cutoff    1.38 Angstroem

   l    n(q)    QCUT    max X(q) W(low)/X(q) W(high)/X(q)  e(spline) 
   1      8    10.771     2.836    0.40E-04    0.29E-04    0.12E-06
   1      8    10.771     4.023    0.10E-03    0.48E-04    0.29E-06
   2      8    10.771    73.368    0.42E-03    0.97E-04    0.44E-06
   2      8    10.771    69.010    0.42E-03    0.99E-04    0.45E-06
   0      9    10.771    54.797    0.10E-03    0.56E-04    0.74E-07
   0      9    10.771    24.266    0.89E-04    0.49E-04    0.67E-07
 Optimization of the real space projectors (new method)

 maximal supplied QI-value         = 19.84
 optimisation between [QCUT,QGAM] = [ 10.71, 21.63] = [ 32.15,130.99] Ry 
 Optimized for a Real-space Cutoff    1.19 Angstroem

   l    n(q)    QCUT    max X(q) W(low)/X(q) W(high)/X(q)  e(spline) 
   0      8    10.715   187.594    0.41E-03    0.53E-04    0.66E-07
   0      8    10.715   164.243    0.41E-03    0.53E-04    0.65E-07
   1      7    10.715    67.533    0.19E-03    0.59E-03    0.68E-07
   1      7    10.715    50.729    0.19E-03    0.58E-03    0.67E-07
  PAW_PBE Ni_pv 06Sep2000               :
 energy of atom  1       EATOM=-3501.1230
 kinetic energy error for atom=    0.0925 (will be added to EATOM!!)
  PAW_PBE S 06Sep2000                   :
 energy of atom  2       EATOM= -276.8230
 kinetic energy error for atom=    0.0033 (will be added to EATOM!!)
 
 
 POSCAR: Structure 2 made from -121-6.xsd file
  positions in direct lattice
  No initial velocities read in
 exchange correlation table for  LEXCH =        8
   RHO(1)=    0.500       N(1)  =     2000
   RHO(2)=  100.500       N(2)  =     4000
 


--------------------------------------------------------------------------------------------------------


 ion  position               nearest neighbor table
   1  0.374  0.751  0.095-  40 2.25  60 2.26  61 2.36  49 2.36  26 2.53  14 2.53
   2  0.525  0.601  0.223-  41 2.25  49 2.26  61 2.26  62 2.36  50 2.36  15 2.53  27 2.53
   3  0.675  0.451  0.351-  42 2.25  62 2.26  50 2.26  63 2.36  51 2.36  28 2.53  16 2.53
   4  0.825  0.301  0.479-  43 2.25  63 2.26  51 2.26  64 2.36  13 2.53  25 2.53
   5  0.607  0.185  0.010-  45 2.25  67 2.36  52 2.36
   6  0.758  0.035  0.138-  46 2.25  52 2.26  67 2.26  53 2.36  68 2.36  29 2.53  20 2.53
   7  0.058  0.734  0.394-  48 2.25  65 2.26  54 2.26  55 2.36  66 2.36  18 2.53  31 2.53
   8  0.908  0.884  0.266-  47 2.25  53 2.26  68 2.26  54 2.36  65 2.36  30 2.53  17 2.53
   9  0.141  0.318  0.180-  39 2.25  56 2.26  69 2.26  70 2.36  57 2.36  34 2.53  21 2.53
  10  0.291  0.168  0.308-  37 2.25  57 2.26  70 2.26  58 2.36  71 2.36  35 2.53  22 2.53
  11  0.442  0.017  0.436-  71 2.26  58 2.26  72 2.36  23 2.53  36 2.53
  12  0.991  0.468  0.052-  38 2.25  59 2.26  56 2.36  69 2.36  33 2.53
  13  0.010  0.116  0.412-  54 2.25  63 2.26  37 2.26  64 2.36  25 2.53   4 2.53
  14  0.559  0.567  0.027-  60 2.26  61 2.36  38 2.36  26 2.53   1 2.53
  15  0.709  0.416  0.155-  52 2.25  38 2.26  61 2.26  39 2.36  62 2.36  27 2.53   2 2.53
  16  0.860  0.266  0.283-  53 2.25  62 2.26  39 2.26  37 2.36  63 2.36   3 2.53  28 2.53
  17  0.093  0.700  0.198-  56 2.25  40 2.26  68 2.26  41 2.36  65 2.36  30 2.53   8 2.53
  18  0.243  0.549  0.326-  57 2.25  65 2.26  41 2.26  66 2.36  42 2.36   7 2.53  31 2.53
  19  0.393  0.399  0.454-  58 2.25  66 2.26  42 2.26  43 2.36  32 2.53
  20  0.943  0.850  0.070-  59 2.25  67 2.26  44 2.26  68 2.36  40 2.36   6 2.53  29 2.53
  21  0.326  0.133  0.113-  45 2.26  69 2.26  70 2.36  46 2.36  34 2.53   9 2.53
  22  0.476  0.983  0.241-  49 2.25  70 2.26  46 2.26  47 2.36  71 2.36  35 2.53  10 2.53
  23  0.627  0.833  0.369-  50 2.25  71 2.26  47 2.26  48 2.36  72 2.36  36 2.53  11 2.53
  24  0.777  0.682  0.497-  51 2.25  72 2.26  48 2.26
  25  0.050  0.340  0.445-  66 2.25  51 2.26  37 2.26  13 2.53   4 2.53
  26  0.599  0.791  0.061-  67 2.25  38 2.36  49 2.36  14 2.53   1 2.53
  27  0.749  0.641  0.189-  68 2.25  49 2.26  38 2.26  39 2.36  50 2.36  15 2.53   2 2.53
  28  0.899  0.491  0.317-  65 2.25  50 2.26  39 2.26  51 2.36  37 2.36   3 2.53  16 2.53
  29  0.982  0.074  0.104-  69 2.25  44 2.26  52 2.26  40 2.36  53 2.36   6 2.53  20 2.53
  30  0.133  0.924  0.232-  70 2.25  53 2.26  40 2.26  54 2.36  41 2.36   8 2.53  17 2.53
  31  0.283  0.774  0.360-  71 2.25  54 2.26  41 2.26  42 2.36  55 2.36   7 2.53  18 2.53
  32  0.433  0.624  0.488-  72 2.25  55 2.26  42 2.26  43 2.36  19 2.53
  33  0.215  0.508  0.019-  60 2.25  59 2.26  45 2.36  56 2.36  12 2.53
  34  0.366  0.358  0.147-  61 2.25  45 2.26  56 2.26  46 2.36  57 2.36  21 2.53   9 2.53
  35  0.516  0.207  0.275-  62 2.25  57 2.26  46 2.26  47 2.36  58 2.36  10 2.53  22 2.53
  36  0.666  0.057  0.403-  63 2.25  58 2.26  47 2.26  48 2.36  23 2.53  11 2.53
  37  0.064  0.262  0.341-  10 2.25  13 2.26  25 2.26  16 2.36  28 2.36
  38  0.763  0.563  0.085-  12 2.25  15 2.26  27 2.26  14 2.36  26 2.36
  39  0.914  0.412  0.213-   9 2.25  16 2.26  28 2.26  27 2.36  15 2.36
  40  0.147  0.846  0.128-   1 2.25  17 2.26  30 2.26  20 2.36  29 2.36
  41  0.297  0.696  0.256-   2 2.25  31 2.26  18 2.26  30 2.36  17 2.36
  42  0.447  0.545  0.384-   3 2.25  32 2.26  19 2.26  31 2.36  18 2.36
  43  0.598  0.395  0.512-   4 2.25  19 2.36  32 2.36
  44  0.996  0.996  0.000-  29 2.26  20 2.26
  45  0.380  0.279  0.043-   5 2.25  34 2.26  21 2.26  33 2.36
  46  0.530  0.129  0.171-   6 2.25  22 2.26  35 2.26  34 2.36  21 2.36
  47  0.680  0.979  0.299-   8 2.25  23 2.26  36 2.26  35 2.36  22 2.36
  48  0.831  0.829  0.427-   7 2.25  24 2.26  23 2.36  36 2.36
  49  0.528  0.798  0.171-  22 2.25  27 2.26   2 2.26   1 2.36  26 2.36
  50  0.678  0.648  0.299-  23 2.25  28 2.26   3 2.26  27 2.36   2 2.36
  51  0.829  0.497  0.427-  24 2.25   4 2.26  25 2.26  28 2.36   3 2.36
  52  0.761  0.231  0.086-  15 2.25  29 2.26   6 2.26   5 2.36
  53  0.911  0.081  0.214-  16 2.25   8 2.26  30 2.26   6 2.36  29 2.36
  54  0.062  0.931  0.342-  13 2.25  31 2.26   7 2.26  30 2.36   8 2.36
  55  0.212  0.781  0.470-  32 2.26  31 2.36   7 2.36
  56  0.145  0.515  0.129-  17 2.25  34 2.26   9 2.26  12 2.36  33 2.36
  57  0.295  0.364  0.257-  18 2.25  10 2.26  35 2.26   9 2.36  34 2.36
  58  0.445  0.214  0.385-  19 2.25  36 2.26  11 2.26  35 2.36  10 2.36
  59  0.994  0.665  0.001-  20 2.25  33 2.26  12 2.26
  60  0.327  0.662  0.000-  33 2.25  14 2.26   1 2.26
  61  0.477  0.512  0.128-  34 2.25  15 2.26   2 2.26   1 2.36  14 2.36
  62  0.628  0.362  0.256-  35 2.25   3 2.26  16 2.26   2 2.36  15 2.36
  63  0.778  0.212  0.384-  36 2.25   4 2.26  13 2.26  16 2.36   3 2.36
  64  0.928  0.061  0.512-  13 2.36   4 2.36
  65  0.011  0.645  0.299-  28 2.25   7 2.26  18 2.26   8 2.36  17 2.36
  66  0.161  0.495  0.427-  25 2.25  19 2.26  18 2.36   7 2.36
  67  0.711  0.946  0.043-  26 2.25  20 2.26   6 2.26   5 2.36
  68  0.861  0.795  0.171-  27 2.25  17 2.26   8 2.26   6 2.36  20 2.36
  69  0.094  0.229  0.086-  29 2.25  21 2.26   9 2.26  12 2.36
  70  0.244  0.079  0.214-  30 2.25  22 2.26  10 2.26   9 2.36  21 2.36
  71  0.395  0.928  0.342-  31 2.25  11 2.26  23 2.26  10 2.36  22 2.36
  72  0.545  0.778  0.470-  32 2.25  24 2.26  11 2.36  23 2.36
 
  LATTYP: Found a base centered orthorhombic cell.
 ALAT       =    11.4527836704
 B/A-ratio  =     1.4485816945
 C/A-ratio  =     1.7908432109
  
  Lattice vectors:
  
 A1 = (   9.4251025535,   3.5732980427,   0.0000000000)
 A2 = (   0.0000000000, -10.0797329849,   0.0000000000)
 A3 = (   0.0000000000,   0.0000000000, -20.5101398818)


Analysis of symmetry for initial positions (statically):
=====================================================================
 Subroutine PRICEL returns:
 Original cell was already a primitive cell.
 

 Routine SETGRP: Setting up the symmetry group for a 
 base centered orthorhombic supercell.


 Subroutine GETGRP returns: Found  1 space group operations
 (whereof  1 operations were pure point group operations)
 out of a pool of  8 trial point group operations.


The static configuration has the point symmetry C_1 .


Analysis of symmetry for dynamics (positions and initial velocities):
=====================================================================
 Subroutine PRICEL returns:
 Original cell was already a primitive cell.
 

 Routine SETGRP: Setting up the symmetry group for a 
 base centered orthorhombic supercell.


 Subroutine GETGRP returns: Found  1 space group operations
 (whereof  1 operations were pure point group operations)
 out of a pool of  8 trial point group operations.


The dynamic configuration has the point symmetry C_1 .


 Subroutine INISYM returns: Found  1 space group operations
 (whereof  1 operations are pure point group operations),
 and found     1 'primitive' translations


----------------------------------------------------------------------------------------

                                     Primitive cell                                     

  volume of cell :    1948.5149

  direct lattice vectors                    reciprocal lattice vectors
     9.425102554  3.573298043  0.000000000     0.106099641  0.000000000  0.000000000
     0.000000000 10.079732985  0.000000000    -0.037612667  0.099208977  0.000000000
     0.000000000  0.000000000 20.510139882     0.000000000  0.000000000  0.048756372

  length of vectors
    10.079732985 10.079732985 20.510139882     0.106099641  0.106099641  0.048756372

  position of ions in fractional coordinates (direct lattice)
     0.374332151  0.751362196  0.095112347
     0.524600663  0.601093683  0.223122317
     0.674869176  0.450825171  0.351132287
     0.825137688  0.300556659  0.479142257
     0.607486476  0.184874537  0.009772366
     0.757754989  0.034606025  0.137782337
     0.058292013  0.734069000  0.393802277
     0.908023501  0.884337513  0.265792307
     0.141177826  0.317849854  0.180452327
     0.291446338  0.167581342  0.308462297
     0.441714851  0.017312829  0.436472267
     0.990909314  0.468118367  0.052442357
     0.009940003  0.115754344  0.411500253
     0.559134466  0.566559881  0.027470342
     0.709402978  0.416291369  0.155480312
     0.859671491  0.266022856  0.283490283
     0.092825816  0.699535198  0.198150302
     0.243094328  0.549266685  0.326160273
     0.393362841  0.398998173  0.454170243
     0.942557303  0.849803710  0.070140332
     0.325980141  0.133047539  0.112810322
     0.476248653  0.982779027  0.240820292
     0.626517166  0.832510515  0.368830263
     0.776785678  0.682242002  0.496840233
     0.049641846  0.340258501  0.445321255
     0.598836308  0.791064038  0.061291344
     0.749104821  0.640795526  0.189301315
     0.899373333  0.490527014  0.317311285
     0.982259146  0.074307868  0.103961334
     0.132527658  0.924039355  0.231971305
     0.282796171  0.773770843  0.359981275
     0.433064683  0.623502330  0.487991245
     0.215413471  0.507820209  0.018621354
     0.365681983  0.357551697  0.146631324
     0.515950496  0.207283184  0.274641295
     0.666219008  0.057014672  0.402651265
     0.063821577  0.262084769  0.341359920
     0.763284553  0.562621794  0.085339980
     0.913553065  0.412353282  0.213349950
     0.146707390  0.845865623  0.128009970
     0.296975903  0.695597111  0.256019940
     0.447244415  0.545328599  0.384029910
     0.597512927  0.395060086  0.512039881
     0.996438878  0.996134136  0.000000000
     0.379861715  0.279377965  0.042669990
     0.530130228  0.129109453  0.170679960
     0.680398740  0.978840940  0.298689930
     0.830667252  0.828572428  0.426699900
     0.527964224  0.797942123  0.171472769
     0.678232736  0.647673611  0.299482739
     0.828501249  0.497405098  0.427492709
     0.761118549  0.231454465  0.086132789
     0.911387061  0.081185952  0.214142759
     0.061655574  0.930917440  0.342152729
     0.211924086  0.780648927  0.470162699
     0.144541386  0.514698294  0.128802779
     0.294809899  0.364429781  0.256812749
     0.445078411  0.214161269  0.384822719
     0.994272874  0.664966806  0.000792808
     0.327140876  0.662335471  0.000396404
     0.477409388  0.512066959  0.128406374
     0.627677901  0.361798446  0.256416345
     0.777946413  0.211529934  0.384426315
     0.928214925  0.061261421  0.512436285
     0.011100738  0.645042275  0.299086335
     0.161369251  0.494773763  0.427096305
     0.710563713  0.945579300  0.043066394
     0.860832226  0.795310788  0.171076364
     0.093986551  0.228823129  0.085736384
     0.244255063  0.078554617  0.213746354
     0.394523576  0.928286105  0.341756325
     0.544792088  0.778017592  0.469766295

  ion indices of the primitive-cell ions
   primitive index   ion index
                 1           1
                 2           2
                 3           3
                 4           4
                 5           5
                 6           6
                 7           7
                 8           8
                 9           9
                10          10
                11          11
                12          12
                13          13
                14          14
                15          15
                16          16
                17          17
                18          18
                19          19
                20          20
                21          21
                22          22
                23          23
                24          24
                25          25
                26          26
                27          27
                28          28
                29          29
                30          30
                31          31
                32          32
                33          33
                34          34
                35          35
                36          36
                37          37
                38          38
                39          39
                40          40
                41          41
                42          42
                43          43
                44          44
                45          45
                46          46
                47          47
                48          48
                49          49
                50          50
                51          51
                52          52
                53          53
                54          54
                55          55
                56          56
                57          57
                58          58
                59          59
                60          60
                61          61
                62          62
                63          63
                64          64
                65          65
                66          66
                67          67
                68          68
                69          69
                70          70
                71          71
                72          72

----------------------------------------------------------------------------------------

 
 
 KPOINTS: gamma-point-only calculation. no periodi

Automatic generation of k-mesh.
Space group operators:
 irot       det(A)        alpha          n_x          n_y          n_z        tau_x        tau_y        tau_z
    1     1.000000     0.000000     1.000000     0.000000     0.000000     0.000000     0.000000     0.000000
 
 Subroutine IBZKPT returns following result:
 ===========================================
 
 Found      1 irreducible k-points:
 
 Following reciprocal coordinates:
            Coordinates               Weight
  0.000000  0.000000  0.000000      1.000000
 
 Following cartesian coordinates:
            Coordinates               Weight
  0.000000  0.000000  0.000000      1.000000
 


--------------------------------------------------------------------------------------------------------




 Dimension of arrays:
   k-points           NKPTS =      1   k-points in BZ     NKDIM =      1   number of bands    NBANDS=    480
   number of dos      NEDOS =    301   number of ions     NIONS =     72
   non local maximal  LDIM  =      6   non local SUM 2l+1 LMDIM =     18
   total plane-waves  NPLWV = 314928
   max r-space proj   IRMAX =   1832   max aug-charges    IRDMAX=   5291
   dimension x,y,z NGX =    54 NGY =   54 NGZ =  108
   dimension x,y,z NGXF=   108 NGYF=  108 NGZF=  216
   support grid    NGXF=   108 NGYF=  108 NGZF=  216
   ions per type =              36  36
   NGX,Y,Z   is equivalent  to a cutoff of   8.91,  8.91,  8.75 a.u.
   NGXF,Y,Z  is equivalent  to a cutoff of  17.81, 17.81, 17.51 a.u.

 SYSTEM =  "Millerite NiS"                         
 POSCAR =  Structure 2 made from -121-6.xsd file   

 Startparameter for this run:
   NWRITE =      2    write-flag & timer
   PREC   = normal    normal or accurate (medium, high low for compatibility)
   ISTART =      0    job   : 0-new  1-cont  2-samecut
   ICHARG =      2    charge: 1-file 2-atom 10-const
   ISPIN  =      1    spin polarized calculation?
   LNONCOLLINEAR =      F non collinear calculations
   LSORBIT =      F    spin-orbit coupling
   INIWAV =      1    electr: 0-lowe 1-rand  2-diag
   LASPH  =      F    aspherical Exc in radial PAW
   METAGGA=      F    non-selfconsistent MetaGGA calc.

 Electronic Relaxation 1
   ENCUT  =  450.0 eV  33.07 Ry    5.75 a.u.  17.43 17.43 35.48*2*pi/ulx,y,z
   ENINI  =  450.0     initial cutoff
   ENAUG  =  703.4 eV  augmentation charge cutoff
   NELM   =    100;   NELMIN=  2; NELMDL= -5     # of ELM steps 
   EDIFF  = 0.1E-03   stopping-criterion for ELM
   LREAL  =      T    real-space projection
   NLSPLINE    = F    spline interpolate recip. space projectors
   LCOMPAT=      F    compatible to vasp.4.4
   GGA_COMPAT  = T    GGA compatible to vasp.4.4-vasp.4.6
   LMAXPAW     = -100 max onsite density
   LMAXMIX     =    2 max onsite mixed and CHGCAR
   VOSKOWN=      0    Vosko Wilk Nusair interpolation
   ROPT   =   -0.00050  -0.00050
 Ionic relaxation
   EDIFFG = 0.1E-02   stopping-criterion for IOM
   NSW    =      0    number of steps for IOM
   NBLOCK =      1;   KBLOCK =      1    inner block; outer block 
   IBRION =     -1    ionic relax: 0-MD 1-quasi-New 2-CG
   NFREE  =      0    steps in history (QN), initial steepest desc. (CG)
   ISIF   =      2    stress and relaxation
   IWAVPR =     10    prediction:  0-non 1-charg 2-wave 3-comb
   ISYM   =      2    0-nonsym 1-usesym 2-fastsym
   LCORR  =      T    Harris-Foulkes like correction to forces

   POTIM  = 0.5000    time-step for ionic-motion
   TEIN   =    0.0    initial temperature
   TEBEG  =    0.0;   TEEND  =   0.0 temperature during run
   SMASS  =  -3.00    Nose mass-parameter (am)
   estimated Nose-frequenzy (Omega)   =  0.10E-29 period in steps = 0.13E+47 mass=  -0.232E-26a.u.
   SCALEE = 1.0000    scale energy and forces
   NPACO  =    256;   APACO  = 16.0  distance and # of slots for P.C.
   PSTRESS=    0.0 pullay stress

  Mass of Ions in am
   POMASS =  58.69 32.07
  Ionic Valenz
   ZVAL   =  16.00  6.00
  Atomic Wigner-Seitz radii
   RWIGS  =  -1.00 -1.00
  virtual crystal weights 
   VCA    =   1.00  1.00
   NELECT =     792.0000    total number of electrons
   NUPDOWN=      -1.0000    fix difference up-down

 DOS related values:
   EMIN   =  10.00;   EMAX   =-10.00  energy-range for DOS
   EFERMI =   0.00
   ISMEAR =     0;   SIGMA  =   0.20  broadening in eV -4-tet -1-fermi 0-gaus

 Electronic relaxation 2 (details)
   IALGO  =     38    algorithm
   LDIAG  =      T    sub-space diagonalisation (order eigenvalues)
   LSUBROT=      F    optimize rotation matrix (better conditioning)
   TURBO    =      0    0=normal 1=particle mesh
   IRESTART =      0    0=no restart 2=restart with 2 vectors
   NREBOOT  =      0    no. of reboots
   NMIN     =      0    reboot dimension
   EREF     =   0.00    reference energy to select bands
   IMIX   =      4    mixing-type and parameters
     AMIX     =   0.40;   BMIX     =  1.00
     AMIX_MAG =   1.60;   BMIX_MAG =  1.00
     AMIN     =   0.10
     WC   =   100.;   INIMIX=   1;  MIXPRE=   1;  MAXMIX= -45

 Intra band minimization:
   WEIMIN = 0.0000     energy-eigenvalue tresh-hold
   EBREAK =  0.52E-07  absolut break condition
   DEPER  =   0.30     relativ break condition  

   TIME   =   0.40     timestep for ELM

  volume/ion in A,a.u.               =      27.06       182.63
  Fermi-wavevector in a.u.,A,eV,Ry     =   1.212687  2.291646 20.008854  1.470609
  Thomas-Fermi vector in A             =   2.348163
 
 Write flags
   LWAVE        =      F    write WAVECAR
   LDOWNSAMPLE  =      F    k-point downsampling of WAVECAR
   LCHARG       =      F    write CHGCAR
   LVTOT        =      F    write LOCPOT, total local potential
   LVHAR        =      F    write LOCPOT, Hartree potential only
   LELF         =      F    write electronic localiz. function (ELF)
   LORBIT       =      0    0 simple, 1 ext, 2 COOP (PROOUT), +10 PAW based schemes


 Dipole corrections
   LMONO  =      F    monopole corrections only (constant potential shift)
   LDIPOL =      F    correct potential (dipole corrections)
   IDIPOL =      0    1-x, 2-y, 3-z, 4-all directions 
   EPSILON=  1.0000000 bulk dielectric constant

 Exchange correlation treatment:
   GGA     =    --    GGA type
   LEXCH   =     8    internal setting for exchange type
   VOSKOWN=      0    Vosko Wilk Nusair interpolation
   LHFCALC =     F    Hartree Fock is set to
   LHFONE  =     F    Hartree Fock one center treatment
   AEXX    =    0.0000 exact exchange contribution

 Linear response parameters
   LEPSILON=     F    determine dielectric tensor
   LRPA    =     F    only Hartree local field effects (RPA)
   LNABLA  =     F    use nabla operator in PAW spheres
   LVEL    =     F    velocity operator in full k-point grid
   LINTERFAST=   F  fast interpolation
   KINTER  =     0    interpolate to denser k-point grid
   CSHIFT  =0.1000    complex shift for real part using Kramers Kronig
   OMEGAMAX=  -1.0    maximum frequency
   DEG_THRESHOLD= 0.2000000E-02 threshold for treating states as degnerate
   RTIME   =   -0.100 relaxation time in fs
  (WPLASMAI=    0.000 imaginary part of plasma frequency in eV, 0.658/RTIME)
   DFIELD  = 0.0000000 0.0000000 0.0000000 field for delta impulse in time
 
 Orbital magnetization related:
   ORBITALMAG=     F  switch on orbital magnetization
   LCHIMAG   =     F  perturbation theory with respect to B field
   DQ        =  0.001000  dq finite difference perturbation B field
   LLRAUG    =     F  two centre corrections for induced B field



--------------------------------------------------------------------------------------------------------


 Static calculation
 charge density and potential will be updated during run
 non-spin polarized calculation
 Variant of blocked Davidson
 Davidson routine will perform the subspace rotation
 perform sub-space diagonalisation
    after iterative eigenvector-optimisation
 modified Broyden-mixing scheme, WC =      100.0
 initial mixing is a Kerker type mixing with AMIX =  0.4000 and BMIX =      1.0000
 Hartree-type preconditioning will be used
 using additional bands           84
 real space projection scheme for non local part
 use partial core corrections
 calculate Harris-corrections to forces 
   (improved forces if not selfconsistent)
 use gradient corrections 
 use of overlap-Matrix (Vanderbilt PP)
 Gauss-broadening in eV      SIGMA  =   0.20


--------------------------------------------------------------------------------------------------------


  energy-cutoff  :      450.00
  volume of cell :     1948.51
      direct lattice vectors                 reciprocal lattice vectors
     9.425102554  3.573298043  0.000000000     0.106099641  0.000000000  0.000000000
     0.000000000 10.079732985  0.000000000    -0.037612667  0.099208977  0.000000000
     0.000000000  0.000000000 20.510139882     0.000000000  0.000000000  0.048756372

  length of vectors
    10.079732985 10.079732985 20.510139882     0.106099641  0.106099641  0.048756372


 
 k-points in units of 2pi/SCALE and weight: gamma-point-only calculation. no periodi
   0.00000000  0.00000000  0.00000000       1.000
 
 k-points in reciprocal lattice and weights: gamma-point-only calculation. no periodi
   0.00000000  0.00000000  0.00000000       1.000
 
 position of ions in fractional coordinates (direct lattice) 
   0.37433215  0.75136220  0.09511235
   0.52460066  0.60109368  0.22312232
   0.67486918  0.45082517  0.35113229
   0.82513769  0.30055666  0.47914226
   0.60748648  0.18487454  0.00977237
   0.75775499  0.03460603  0.13778234
   0.05829201  0.73406900  0.39380228
   0.90802350  0.88433751  0.26579231
   0.14117783  0.31784985  0.18045233
   0.29144634  0.16758134  0.30846230
   0.44171485  0.01731283  0.43647227
   0.99090931  0.46811837  0.05244236
   0.00994000  0.11575434  0.41150025
   0.55913447  0.56655988  0.02747034
   0.70940298  0.41629137  0.15548031
   0.85967149  0.26602286  0.28349028
   0.09282582  0.69953520  0.19815030
   0.24309433  0.54926668  0.32616027
   0.39336284  0.39899817  0.45417024
   0.94255730  0.84980371  0.07014033
   0.32598014  0.13304754  0.11281032
   0.47624865  0.98277903  0.24082029
   0.62651717  0.83251052  0.36883026
   0.77678568  0.68224200  0.49684023
   0.04964185  0.34025850  0.44532126
   0.59883631  0.79106404  0.06129134
   0.74910482  0.64079553  0.18930132
   0.89937333  0.49052701  0.31731129
   0.98225915  0.07430787  0.10396133
   0.13252766  0.92403935  0.23197131
   0.28279617  0.77377084  0.35998128
   0.43306468  0.62350233  0.48799125
   0.21541347  0.50782021  0.01862135
   0.36568198  0.35755170  0.14663132
   0.51595050  0.20728318  0.27464130
   0.66621901  0.05701467  0.40265127
   0.06382158  0.26208477  0.34135992
   0.76328455  0.56262179  0.08533998
   0.91355307  0.41235328  0.21334995
   0.14670739  0.84586562  0.12800997
   0.29697590  0.69559711  0.25601994
   0.44724442  0.54532860  0.38402991
   0.59751293  0.39506009  0.51203988
   0.99643888  0.99613414  0.00000000
   0.37986171  0.27937797  0.04266999
   0.53013023  0.12910945  0.17067996
   0.68039874  0.97884094  0.29868993
   0.83066725  0.82857243  0.42669990
   0.52796422  0.79794212  0.17147277
   0.67823274  0.64767361  0.29948274
   0.82850125  0.49740510  0.42749271
   0.76111855  0.23145446  0.08613279
   0.91138706  0.08118595  0.21414276
   0.06165557  0.93091744  0.34215273
   0.21192409  0.78064893  0.47016270
   0.14454139  0.51469829  0.12880278
   0.29480990  0.36442978  0.25681275
   0.44507841  0.21416127  0.38482272
   0.99427287  0.66496681  0.00079281
   0.32714088  0.66233547  0.00039640
   0.47740939  0.51206696  0.12840637
   0.62767790  0.36179845  0.25641634
   0.77794641  0.21152993  0.38442631
   0.92821492  0.06126142  0.51243628
   0.01110074  0.64504228  0.29908633
   0.16136925  0.49477376  0.42709630
   0.71056371  0.94557930  0.04306639
   0.86083223  0.79531079  0.17107636
   0.09398655  0.22882313  0.08573638
   0.24425506  0.07855462  0.21374635
   0.39452358  0.92828610  0.34175632
   0.54479209  0.77801759  0.46976629
 
 position of ions in cartesian coordinates  (Angst):
   3.52811891  8.91113065  1.95076754
   4.94441505  7.93341835  4.57626993
   6.36071119  6.95570605  7.20177232
   7.77700733  5.97799376  9.82727471
   5.72562234  4.03421620  0.20043259
   7.14191848  3.05650391  2.82593501
   0.54940820  7.60751425  8.07693979
   8.55821462 12.15852460  5.45143740
   1.33061549  3.70831211  3.70110247
   2.74691162  2.73059981  6.32660486
   4.16320777  1.75288751  8.95210725
   9.33942191  8.25932246  1.07560008
   0.09368555  1.20229147  8.43992775
   5.26989968  7.70872641  0.56342056
   6.68619582  6.73101412  3.18892295
   8.10249196  5.75330181  5.81442536
   0.87489284  7.38282232  4.06409041
   2.29118897  6.40511001  6.68959282
   3.70748512  5.42739772  9.31509521
   8.88369924 11.93383265  1.43858802
   3.07239626  2.50590787  2.31375548
   4.48869240 11.60792855  4.93925788
   5.90498854 10.63021626  7.56476029
   7.32128468  9.65250395 10.19026268
   0.46787949  3.60709995  9.13360123
   5.64409362 10.11353488  1.25709404
   7.06038976  9.13582259  3.88259645
   8.47668590  8.15811029  6.50809884
   9.25789319  4.25890815  2.13226150
   1.24908677  9.78763079  4.75776391
   2.66538291  8.80991849  7.38326631
   4.08167905  7.83220619 10.00876870
   2.03029406  5.88842865  0.38192658
   3.44659019  4.91071635  3.00742897
   4.86288634  3.93300404  5.63293138
   6.27918247  2.95529175  8.25843377
   0.60152491  2.86979801  7.00133971
   7.19403519  8.39852065  1.75033493
   8.61033133  7.42080836  4.37583732
   1.38273220  9.05032885  2.62550239
   2.79902834  8.07261656  5.25100478
   4.21532448  7.09490426  7.87650717
   5.63162061  6.11719195 10.50200958
   9.39153861 13.60133920  0.00000000
   3.58023562  4.17341441  0.87516746
   4.99653177  3.19570212  3.50066985
   6.41282790 12.29772280  6.12617225
   7.82912404 11.32001050  8.75167464
   4.97611696  9.92961707  3.51693048
   6.39241309  8.95190477  6.14243287
   7.80870924  7.97419246  8.76793526
   7.17362038  5.05270263  1.76659555
   8.58991652  4.07499032  4.39209794
   0.58111011  9.60371297  7.01760033
   1.99740624  8.62600066  9.64310272
   1.36231739  5.70451082  2.64176301
   2.77861353  4.72679852  5.26726541
   4.19490967  3.74908622  7.89276780
   9.37112380 10.25552116  0.01626060
   3.08333631  7.84513655  0.00813030
   4.49963244  6.86742425  2.63363269
   5.91592859  5.88971195  5.25913510
   7.33222472  4.91199965  7.88463749
   8.74852086  3.93428734 10.51013989
   0.10462559  6.54152014  6.13430257
   1.52092174  5.56380785  8.75980496
   6.69713587 12.07024278  0.88329777
   8.11343201 11.09253049  3.50880016
   0.88583288  2.64231800  1.75846523
   2.30212902  1.66460570  4.38396762
   3.71842516 10.76662639  7.00947003
   5.13472130  9.78891409  9.63497242
 


--------------------------------------------------------------------------------------------------------


 use parallel FFT for orbitals z direction half grid
 k-point   1 :   0.0000 0.0000 0.0000  plane waves:   21165

 maximum and minimum number of plane-waves per node :      3530     3525

 maximum number of plane-waves:     21165
 maximum index in each direction: 
   IXMAX=   17   IYMAX=   17   IZMAX=   35
   IXMIN=  -17   IYMIN=  -17   IZMIN=    0


 real space projection operators:
  total allocation   :      11245.34 KBytes
  max/ min on nodes  :       1876.56       1869.92


 parallel 3D FFT for wavefunctions:
    minimum data exchange during FFTs selected (reduces bandwidth)
 parallel 3D FFT for charge:
    minimum data exchange during FFTs selected (reduces bandwidth)


 total amount of memory used by VASP MPI-rank0    45304. kBytes
=======================================================================

   base      :      30000. kBytes
   nonlr-proj:       2305. kBytes
   fftplans  :       3383. kBytes
   grid      :       6052. kBytes
   one-center:         93. kBytes
   wavefun   :       3471. kBytes
 
     INWAV:  cpu time    0.0000: real time    0.0000
 Broyden mixing: mesh for mixing (old mesh)
   NGX = 35   NGY = 35   NGZ = 71
  (NGX  =108   NGY  =108   NGZ  =216)
  gives a total of  86975 points

 initial charge density was supplied:
 charge density of overlapping atoms calculated
 number of electron     792.0000000 magnetization 
 keeping initial charge density in first step


--------------------------------------------------------------------------------------------------------


 Maximum index for non-local projection operator          304
 Maximum index for augmentation-charges          454 (set IRDMAX)


--------------------------------------------------------------------------------------------------------


 First call to EWALD:  gamma=   0.142
 Maximum number of real-space cells 3x 3x 2
 Maximum number of reciprocal cells 2x 2x 4

    FEWALD:  cpu time    0.0061: real time    0.0062


--------------------------------------- Iteration      1(   1)  ---------------------------------------


    POTLOK:  cpu time    0.0431: real time    0.0459
    SETDIJ:  cpu time    0.0072: real time    0.0072
     EDDAV:  cpu time    2.0457: real time    2.0533
       DOS:  cpu time    0.0007: real time    0.0009
    --------------------------------------------
      LOOP:  cpu time    2.0968: real time    2.1074

 eigenvalue-minimisations  :  1168
 total energy-change (2. order) : 0.9819222E+04  (-0.5080171E+05)
 number of electron     792.0000000 magnetization 
 augmentation part      792.0000000 magnetization 

 Free energy of the ion-electron system (eV)
  ---------------------------------------------------
  alpha Z        PSCENC =      1909.09476555
  Ewald energy   TEWEN  =    163498.49543297
  -Hartree energ DENC   =   -286129.96688203
  -exchange      EXHF   =         0.00000000
  -V(xc)+E(xc)   XCENC  =      3652.45384850
  PAW double counting   =    112729.53333415  -117641.51188735
  entropy T*S    EENTRO =        -0.33574273
  eigenvalues    EBANDS =     -4201.14626684
  atomic energy  EATOM  =    136002.60505376
  Solvation  Ediel_sol  =         0.00000000
  ---------------------------------------------------
  free energy    TOTEN  =      9819.22165597 eV

  energy without entropy =     9819.55739870  energy(sigma->0) =     9819.38952734


--------------------------------------------------------------------------------------------------------




--------------------------------------- Iteration      1(   2)  ---------------------------------------


     EDDAV:  cpu time    1.7997: real time    1.8068
       DOS:  cpu time    0.0006: real time    0.0006
    --------------------------------------------
      LOOP:  cpu time    1.8003: real time    1.8073

 eigenvalue-minimisations  :  1016
 total energy-change (2. order) :-0.9194059E+04  (-0.8858163E+04)
 number of electron     792.0000000 magnetization 
 augmentation part      792.0000000 magnetization 

 Free energy of the ion-electron system (eV)
  ---------------------------------------------------
  alpha Z        PSCENC =      1909.09476555
  Ewald energy   TEWEN  =    163498.49543297
  -Hartree energ DENC   =   -286129.96688203
  -exchange      EXHF   =         0.00000000
  -V(xc)+E(xc)   XCENC  =      3652.45384850
  PAW double counting   =    112729.53333415  -117641.51188735
  entropy T*S    EENTRO =        -0.80648198
  eigenvalues    EBANDS =    -13394.73409609
  atomic energy  EATOM  =    136002.60505376
  Solvation  Ediel_sol  =         0.00000000
  ---------------------------------------------------
  free energy    TOTEN  =       625.16308748 eV

  energy without entropy =      625.96956946  energy(sigma->0) =      625.56632847


--------------------------------------------------------------------------------------------------------




--------------------------------------- Iteration      1(   3)  ---------------------------------------


     EDDAV:  cpu time    1.9200: real time    1.9246
       DOS:  cpu time    0.0010: real time    0.0010
    --------------------------------------------
      LOOP:  cpu time    1.9209: real time    1.9256

 eigenvalue-minimisations  :  1104
 total energy-change (2. order) :-0.9665330E+03  (-0.9112263E+03)
 number of electron     792.0000000 magnetization 
 augmentation part      792.0000000 magnetization 

 Free energy of the ion-electron system (eV)
  ---------------------------------------------------
  alpha Z        PSCENC =      1909.09476555
  Ewald energy   TEWEN  =    163498.49543297
  -Hartree energ DENC   =   -286129.96688203
  -exchange      EXHF   =         0.00000000
  -V(xc)+E(xc)   XCENC  =      3652.45384850
  PAW double counting   =    112729.53333415  -117641.51188735
  entropy T*S    EENTRO =        -1.19424008
  eigenvalues    EBANDS =    -14360.87933994
  atomic energy  EATOM  =    136002.60505376
  Solvation  Ediel_sol  =         0.00000000
  ---------------------------------------------------
  free energy    TOTEN  =      -341.36991447 eV

  energy without entropy =     -340.17567439  energy(sigma->0) =     -340.77279443


--------------------------------------------------------------------------------------------------------




--------------------------------------- Iteration      1(   4)  ---------------------------------------


     EDDAV:  cpu time    1.9355: real time    1.9422
       DOS:  cpu time    0.0006: real time    0.0006
    --------------------------------------------
      LOOP:  cpu time    1.9362: real time    1.9428

 eigenvalue-minimisations  :  1096
 total energy-change (2. order) :-0.6350857E+02  (-0.6262048E+02)
 number of electron     792.0000000 magnetization 
 augmentation part      792.0000000 magnetization 

 Free energy of the ion-electron system (eV)
  ---------------------------------------------------
  alpha Z        PSCENC =      1909.09476555
  Ewald energy   TEWEN  =    163498.49543297
  -Hartree energ DENC   =   -286129.96688203
  -exchange      EXHF   =         0.00000000
  -V(xc)+E(xc)   XCENC  =      3652.45384850
  PAW double counting   =    112729.53333415  -117641.51188735
  entropy T*S    EENTRO =        -1.31606721
  eigenvalues    EBANDS =    -14424.26608523
  atomic energy  EATOM  =    136002.60505376
  Solvation  Ediel_sol  =         0.00000000
  ---------------------------------------------------
  free energy    TOTEN  =      -404.87848689 eV

  energy without entropy =     -403.56241968  energy(sigma->0) =     -404.22045329


--------------------------------------------------------------------------------------------------------




--------------------------------------- Iteration      1(   5)  ---------------------------------------


     EDDAV:  cpu time    2.1080: real time    2.1152
       DOS:  cpu time    0.0007: real time    0.0007
    CHARGE:  cpu time    0.0394: real time    0.0395
    MIXING:  cpu time    0.0025: real time    0.0028
    --------------------------------------------
      LOOP:  cpu time    2.1505: real time    2.1583

 eigenvalue-minimisations  :  1248
 total energy-change (2. order) :-0.2763318E+01  (-0.2759045E+01)
 number of electron     791.9999539 magnetization 
 augmentation part      286.2936093 magnetization 

 Broyden mixing:
  rms(total) = 0.81652E+01    rms(broyden)= 0.81511E+01
  rms(prec ) = 0.85866E+01
  weight for this iteration     100.00

 Free energy of the ion-electron system (eV)
  ---------------------------------------------------
  alpha Z        PSCENC =      1909.09476555
  Ewald energy   TEWEN  =    163498.49543297
  -Hartree energ DENC   =   -286129.96688203
  -exchange      EXHF   =         0.00000000
  -V(xc)+E(xc)   XCENC  =      3652.45384850
  PAW double counting   =    112729.53333415  -117641.51188735
  entropy T*S    EENTRO =        -1.30321153
  eigenvalues    EBANDS =    -14427.04225900
  atomic energy  EATOM  =    136002.60505376
  Solvation  Ediel_sol  =         0.00000000
  ---------------------------------------------------
  free energy    TOTEN  =      -407.64180498 eV

  energy without entropy =     -406.33859345  energy(sigma->0) =     -406.99019921


--------------------------------------------------------------------------------------------------------




--------------------------------------- Iteration      1(   6)  ---------------------------------------


    POTLOK:  cpu time    0.0426: real time    0.0427
    SETDIJ:  cpu time    0.0047: real time    0.0065
     EDDAV:  cpu time    2.0055: real time    2.0103
       DOS:  cpu time    0.0006: real time    0.0006
    CHARGE:  cpu time    0.0378: real time    0.0379
    MIXING:  cpu time    0.0022: real time    0.0022
    --------------------------------------------
      LOOP:  cpu time    2.0934: real time    2.1003

 eigenvalue-minimisations  :  1176
 total energy-change (2. order) :-0.8238683E+02  (-0.9570450E+02)
 number of electron     791.9999530 magnetization 
 augmentation part      352.1522773 magnetization 

 Broyden mixing:
  rms(total) = 0.15481E+02    rms(broyden)= 0.15477E+02
  rms(prec ) = 0.16164E+02
  weight for this iteration     100.00

 eigenvalues of (default mixing * dielectric matrix)
  average eigenvalue GAMMA=   0.2313
  0.2313

 Free energy of the ion-electron system (eV)
  ---------------------------------------------------
  alpha Z        PSCENC =      1909.09476555
  Ewald energy   TEWEN  =    163498.49543297
  -Hartree energ DENC   =   -283337.71434064
  -exchange      EXHF   =         0.00000000
  -V(xc)+E(xc)   XCENC  =      3575.63066221
  PAW double counting   =    114506.90138200  -119178.86562799
  entropy T*S    EENTRO =        -0.93986940
  eigenvalues    EBANDS =    -17465.23609776
  atomic energy  EATOM  =    136002.60505376
  Solvation  Ediel_sol  =         0.00000000
  ---------------------------------------------------
  free energy    TOTEN  =      -490.02863931 eV

  energy without entropy =     -489.08876991  energy(sigma->0) =     -489.55870461


--------------------------------------------------------------------------------------------------------




--------------------------------------- Iteration      1(   7)  ---------------------------------------


    POTLOK:  cpu time    0.0419: real time    0.0420
    SETDIJ:  cpu time    0.0049: real time    0.0050
     EDDAV:  cpu time    1.9686: real time    1.9733
       DOS:  cpu time    0.0006: real time    0.0006
    CHARGE:  cpu time    0.0382: real time    0.0383
    MIXING:  cpu time    0.0017: real time    0.0017
    --------------------------------------------
      LOOP:  cpu time    2.0559: real time    2.0608

 eigenvalue-minimisations  :  1136
 total energy-change (2. order) : 0.1136116E+03  (-0.1756650E+02)
 number of electron     791.9999539 magnetization 
 augmentation part      331.5160227 magnetization 

 Broyden mixing:
  rms(total) = 0.61390E+01    rms(broyden)= 0.61374E+01
  rms(prec ) = 0.64627E+01
  weight for this iteration     100.00

 eigenvalues of (default mixing * dielectric matrix)
  average eigenvalue GAMMA=   0.4975
  0.4975  0.4975

 Free energy of the ion-electron system (eV)
  ---------------------------------------------------
  alpha Z        PSCENC =      1909.09476555
  Ewald energy   TEWEN  =    163498.49543297
  -Hartree energ DENC   =   -284602.75815381
  -exchange      EXHF   =         0.00000000
  -V(xc)+E(xc)   XCENC  =      3604.76845709
  PAW double counting   =    118621.28735045  -123439.16879481
  entropy T*S    EENTRO =        -0.93400040
  eigenvalues    EBANDS =    -15969.80710237
  atomic energy  EATOM  =    136002.60505376
  Solvation  Ediel_sol  =         0.00000000
  ---------------------------------------------------
  free energy    TOTEN  =      -376.41699157 eV

  energy without entropy =     -375.48299117  energy(sigma->0) =     -375.94999137


--------------------------------------------------------------------------------------------------------




--------------------------------------- Iteration      1(   8)  ---------------------------------------


    POTLOK:  cpu time    0.0424: real time    0.0426
    SETDIJ:  cpu time    0.0049: real time    0.0049
     EDDAV:  cpu time    2.1954: real time    2.2034
       DOS:  cpu time    0.0006: real time    0.0006
    CHARGE:  cpu time    0.0383: real time    0.0384
    MIXING:  cpu time    0.0018: real time    0.0018
    --------------------------------------------
      LOOP:  cpu time    2.2835: real time    2.2917

 eigenvalue-minimisations  :  1280
 total energy-change (2. order) :-0.1080124E+03  (-0.1443058E+02)
 number of electron     791.9999511 magnetization 
 augmentation part      306.1529882 magnetization 

 Broyden mixing:
  rms(total) = 0.16561E+02    rms(broyden)= 0.16559E+02
  rms(prec ) = 0.20734E+02
  weight for this iteration     100.00

 eigenvalues of (default mixing * dielectric matrix)
  average eigenvalue GAMMA=   0.4160
  0.6840  0.4612  0.1028

 Free energy of the ion-electron system (eV)
  ---------------------------------------------------
  alpha Z        PSCENC =      1909.09476555
  Ewald energy   TEWEN  =    163498.49543297
  -Hartree energ DENC   =   -285033.12037770
  -exchange      EXHF   =         0.00000000
  -V(xc)+E(xc)   XCENC  =      3625.90910746
  PAW double counting   =    123707.87703138  -128631.41735063
  entropy T*S    EENTRO =        -0.73173963
  eigenvalues    EBANDS =    -15563.14127509
  atomic energy  EATOM  =    136002.60505376
  Solvation  Ediel_sol  =         0.00000000
  ---------------------------------------------------
  free energy    TOTEN  =      -484.42935193 eV

  energy without entropy =     -483.69761230  energy(sigma->0) =     -484.06348211


--------------------------------------------------------------------------------------------------------




--------------------------------------- Iteration      1(   9)  ---------------------------------------


    POTLOK:  cpu time    0.0424: real time    0.0456
    SETDIJ:  cpu time    0.0046: real time    0.0065
     EDDAV:  cpu time    2.1018: real time    2.1068
       DOS:  cpu time    0.0006: real time    0.0006
    CHARGE:  cpu time    0.0385: real time    0.0386
    MIXING:  cpu time    0.0018: real time    0.0018
    --------------------------------------------
      LOOP:  cpu time    2.1898: real time    2.1999

 eigenvalue-minimisations  :  1240
 total energy-change (2. order) : 0.9933587E+02  (-0.1576056E+02)
 number of electron     791.9999609 magnetization 
 augmentation part      307.6183063 magnetization 

 Broyden mixing:
  rms(total) = 0.94589E+01    rms(broyden)= 0.94546E+01
  rms(prec ) = 0.11260E+02
  weight for this iteration     100.00

 eigenvalues of (default mixing * dielectric matrix)
  average eigenvalue GAMMA=   0.3775
  0.8527  0.4126  0.1709  0.0738

 Free energy of the ion-electron system (eV)
  ---------------------------------------------------
  alpha Z        PSCENC =      1909.09476555
  Ewald energy   TEWEN  =    163498.49543297
  -Hartree energ DENC   =   -285142.07325532
  -exchange      EXHF   =         0.00000000
  -V(xc)+E(xc)   XCENC  =      3626.32080125
  PAW double counting   =    125408.95512071  -130348.51482739
  entropy T*S    EENTRO =        -1.43266979
  eigenvalues    EBANDS =    -15338.54389921
  atomic energy  EATOM  =    136002.60505376
  Solvation  Ediel_sol  =         0.00000000
  ---------------------------------------------------
  free energy    TOTEN  =      -385.09347747 eV

  energy without entropy =     -383.66080768  energy(sigma->0) =     -384.37714257


--------------------------------------------------------------------------------------------------------




--------------------------------------- Iteration      1(  10)  ---------------------------------------


    POTLOK:  cpu time    0.0420: real time    0.0421
    SETDIJ:  cpu time    0.0050: real time    0.0050
     EDDAV:  cpu time    2.1717: real time    2.1768
       DOS:  cpu time    0.0006: real time    0.0006
    CHARGE:  cpu time    0.0383: real time    0.0384
    MIXING:  cpu time    0.0019: real time    0.0019
    --------------------------------------------
      LOOP:  cpu time    2.2596: real time    2.2650

 eigenvalue-minimisations  :  1288
 total energy-change (2. order) : 0.5688606E+01  (-0.7373725E+01)
 number of electron     791.9999527 magnetization 
 augmentation part      308.1372447 magnetization 

 Broyden mixing:
  rms(total) = 0.54783E+01    rms(broyden)= 0.54739E+01
  rms(prec ) = 0.60724E+01
  weight for this iteration     100.00

 eigenvalues of (default mixing * dielectric matrix)
  average eigenvalue GAMMA=   0.4798
  1.4467  0.3871  0.3871  0.0891  0.0891

 Free energy of the ion-electron system (eV)
  ---------------------------------------------------
  alpha Z        PSCENC =      1909.09476555
  Ewald energy   TEWEN  =    163498.49543297
  -Hartree energ DENC   =   -285259.92021520
  -exchange      EXHF   =         0.00000000
  -V(xc)+E(xc)   XCENC  =      3625.67045820
  PAW double counting   =    126619.86798117  -131569.92030593
  entropy T*S    EENTRO =        -1.07404448
  eigenvalues    EBANDS =    -15204.22399702
  atomic energy  EATOM  =    136002.60505376
  Solvation  Ediel_sol  =         0.00000000
  ---------------------------------------------------
  free energy    TOTEN  =      -379.40487099 eV

  energy without entropy =     -378.33082651  energy(sigma->0) =     -378.86784875


--------------------------------------------------------------------------------------------------------




--------------------------------------- Iteration      1(  11)  ---------------------------------------


    POTLOK:  cpu time    0.0423: real time    0.0424
    SETDIJ:  cpu time    0.0050: real time    0.0050
     EDDAV:  cpu time    2.1868: real time    2.1919
       DOS:  cpu time    0.0006: real time    0.0006
    CHARGE:  cpu time    0.0382: real time    0.0383
    MIXING:  cpu time    0.0019: real time    0.0019
    --------------------------------------------
      LOOP:  cpu time    2.2748: real time    2.2801

 eigenvalue-minimisations  :  1296
 total energy-change (2. order) :-0.4504695E+00  (-0.4112398E+01)
 number of electron     791.9999541 magnetization 
 augmentation part      307.6297026 magnetization 

 Broyden mixing:
  rms(total) = 0.80655E+01    rms(broyden)= 0.80619E+01
  rms(prec ) = 0.97954E+01
  weight for this iteration     100.00

 eigenvalues of (default mixing * dielectric matrix)
  average eigenvalue GAMMA=   0.4744
  1.7430  0.3981  0.3981  0.1177  0.1177  0.0718

 Free energy of the ion-electron system (eV)
  ---------------------------------------------------
  alpha Z        PSCENC =      1909.09476555
  Ewald energy   TEWEN  =    163498.49543297
  -Hartree energ DENC   =   -285201.85232897
  -exchange      EXHF   =         0.00000000
  -V(xc)+E(xc)   XCENC  =      3624.05744969
  PAW double counting   =    129663.16929003  -134636.97259995
  entropy T*S    EENTRO =        -1.38040691
  eigenvalues    EBANDS =    -15237.07199667
  atomic energy  EATOM  =    136002.60505376
  Solvation  Ediel_sol  =         0.00000000
  ---------------------------------------------------
  free energy    TOTEN  =      -379.85534051 eV

  energy without entropy =     -378.47493360  energy(sigma->0) =     -379.16513705


--------------------------------------------------------------------------------------------------------




--------------------------------------- Iteration      1(  12)  ---------------------------------------


    POTLOK:  cpu time    0.0419: real time    0.0420
    SETDIJ:  cpu time    0.0050: real time    0.0050
     EDDAV:  cpu time    2.2091: real time    2.2144
       DOS:  cpu time    0.0005: real time    0.0005
    CHARGE:  cpu time    0.0382: real time    0.0383
    MIXING:  cpu time    0.0020: real time    0.0020
    --------------------------------------------
      LOOP:  cpu time    2.2968: real time    2.3022

 eigenvalue-minimisations  :  1312
 total energy-change (2. order) : 0.7609994E+01  (-0.3989905E+01)
 number of electron     791.9999550 magnetization 
 augmentation part      311.6855571 magnetization 

 Broyden mixing:
  rms(total) = 0.42093E+01    rms(broyden)= 0.42058E+01
  rms(prec ) = 0.47539E+01
  weight for this iteration     100.00

 eigenvalues of (default mixing * dielectric matrix)
  average eigenvalue GAMMA=   0.4931
  2.0447  0.4167  0.4167  0.2836  0.0713  0.1096  0.1096

 Free energy of the ion-electron system (eV)
  ---------------------------------------------------
  alpha Z        PSCENC =      1909.09476555
  Ewald energy   TEWEN  =    163498.49543297
  -Hartree energ DENC   =   -285205.09935339
  -exchange      EXHF   =         0.00000000
  -V(xc)+E(xc)   XCENC  =      3621.99946553
  PAW double counting   =    131036.93729898  -136016.55710340
  entropy T*S    EENTRO =        -0.91121661
  eigenvalues    EBANDS =    -15218.80969027
  atomic energy  EATOM  =    136002.60505376
  Solvation  Ediel_sol  =         0.00000000
  ---------------------------------------------------
  free energy    TOTEN  =      -372.24534688 eV

  energy without entropy =     -371.33413027  energy(sigma->0) =     -371.78973858


--------------------------------------------------------------------------------------------------------




--------------------------------------- Iteration      1(  13)  ---------------------------------------


    POTLOK:  cpu time    0.0419: real time    0.0420
    SETDIJ:  cpu time    0.0049: real time    0.0049
     EDDAV:  cpu time    2.1834: real time    2.1886
       DOS:  cpu time    0.0006: real time    0.0006
    CHARGE:  cpu time    0.0383: real time    0.0384
    MIXING:  cpu time    0.0021: real time    0.0021
    --------------------------------------------
      LOOP:  cpu time    2.2712: real time    2.2766

 eigenvalue-minimisations  :  1296
 total energy-change (2. order) : 0.4273925E+01  (-0.1975029E+01)
 number of electron     791.9999533 magnetization 
 augmentation part      312.3809603 magnetization 

 Broyden mixing:
  rms(total) = 0.44706E+01    rms(broyden)= 0.44681E+01
  rms(prec ) = 0.50745E+01
  weight for this iteration     100.00

 eigenvalues of (default mixing * dielectric matrix)
  average eigenvalue GAMMA=   0.4802
  2.1506  0.4306  0.4306  0.3813  0.1574  0.0717  0.1099  0.1099

 Free energy of the ion-electron system (eV)
  ---------------------------------------------------
  alpha Z        PSCENC =      1909.09476555
  Ewald energy   TEWEN  =    163498.49543297
  -Hartree energ DENC   =   -285193.07664462
  -exchange      EXHF   =         0.00000000
  -V(xc)+E(xc)   XCENC  =      3621.53214040
  PAW double counting   =    132357.23357456  -137348.88744944
  entropy T*S    EENTRO =        -1.08666460
  eigenvalues    EBANDS =    -15213.88163078
  atomic energy  EATOM  =    136002.60505376
  Solvation  Ediel_sol  =         0.00000000
  ---------------------------------------------------
  free energy    TOTEN  =      -367.97142219 eV

  energy without entropy =     -366.88475759  energy(sigma->0) =     -367.42808989


--------------------------------------------------------------------------------------------------------




--------------------------------------- Iteration      1(  14)  ---------------------------------------


    POTLOK:  cpu time    0.0419: real time    0.0420
    SETDIJ:  cpu time    0.0049: real time    0.0049
     EDDAV:  cpu time    2.1900: real time    2.1968
       DOS:  cpu time    0.0005: real time    0.0005
    CHARGE:  cpu time    0.0385: real time    0.0386
    MIXING:  cpu time    0.0026: real time    0.0026
    --------------------------------------------
      LOOP:  cpu time    2.2785: real time    2.2855

 eigenvalue-minimisations  :  1280
 total energy-change (2. order) : 0.3468465E+01  (-0.1838762E+01)
 number of electron     791.9999556 magnetization 
 augmentation part      313.8310467 magnetization 

 Broyden mixing:
  rms(total) = 0.30613E+01    rms(broyden)= 0.30591E+01
  rms(prec ) = 0.34861E+01
  weight for this iteration     100.00

 eigenvalues of (default mixing * dielectric matrix)
  average eigenvalue GAMMA=   0.4604
  2.1199  0.4511  0.4511  0.3542  0.3542  0.0717  0.1147  0.1147  0.1123

 Free energy of the ion-electron system (eV)
  ---------------------------------------------------
  alpha Z        PSCENC =      1909.09476555
  Ewald energy   TEWEN  =    163498.49543297
  -Hartree energ DENC   =   -285178.02081654
  -exchange      EXHF   =         0.00000000
  -V(xc)+E(xc)   XCENC  =      3621.38353219
  PAW double counting   =    132777.24837933  -137772.66627295
  entropy T*S    EENTRO =        -0.95784440
  eigenvalues    EBANDS =    -15221.68518750
  atomic energy  EATOM  =    136002.60505376
  Solvation  Ediel_sol  =         0.00000000
  ---------------------------------------------------
  free energy    TOTEN  =      -364.50295759 eV

  energy without entropy =     -363.54511319  energy(sigma->0) =     -364.02403539


--------------------------------------------------------------------------------------------------------




--------------------------------------- Iteration      1(  15)  ---------------------------------------


    POTLOK:  cpu time    0.0425: real time    0.0436
    SETDIJ:  cpu time    0.0045: real time    0.0063
     EDDAV:  cpu time    2.0661: real time    2.0710
       DOS:  cpu time    0.0006: real time    0.0006
    CHARGE:  cpu time    0.0383: real time    0.0384
    MIXING:  cpu time    0.0023: real time    0.0023
    --------------------------------------------
      LOOP:  cpu time    2.1542: real time    2.1621

 eigenvalue-minimisations  :  1208
 total energy-change (2. order) : 0.2764074E+01  (-0.5357934E+00)
 number of electron     791.9999548 magnetization 
 augmentation part      313.7720025 magnetization 

 Broyden mixing:
  rms(total) = 0.23257E+01    rms(broyden)= 0.23244E+01
  rms(prec ) = 0.26283E+01
  weight for this iteration     100.00

 eigenvalues of (default mixing * dielectric matrix)
  average eigenvalue GAMMA=   0.4538
  1.9962  0.5763  0.5763  0.3965  0.3965  0.1601  0.1410  0.1117  0.1117  0.0717

 Free energy of the ion-electron system (eV)
  ---------------------------------------------------
  alpha Z        PSCENC =      1909.09476555
  Ewald energy   TEWEN  =    163498.49543297
  -Hartree energ DENC   =   -285178.85745419
  -exchange      EXHF   =         0.00000000
  -V(xc)+E(xc)   XCENC  =      3621.97494681
  PAW double counting   =    132674.09394453  -137670.32882314
  entropy T*S    EENTRO =        -0.88731204
  eigenvalues    EBANDS =    -15217.92943809
  atomic energy  EATOM  =    136002.60505376
  Solvation  Ediel_sol  =         0.00000000
  ---------------------------------------------------
  free energy    TOTEN  =      -361.73888384 eV

  energy without entropy =     -360.85157180  energy(sigma->0) =     -361.29522782


--------------------------------------------------------------------------------------------------------




--------------------------------------- Iteration      1(  16)  ---------------------------------------


    POTLOK:  cpu time    0.0422: real time    0.0423
    SETDIJ:  cpu time    0.0050: real time    0.0050
     EDDAV:  cpu time    2.1810: real time    2.1863
       DOS:  cpu time    0.0006: real time    0.0006
    CHARGE:  cpu time    0.0425: real time    0.0426
    MIXING:  cpu time    0.0025: real time    0.0025
    --------------------------------------------
      LOOP:  cpu time    2.2738: real time    2.2793

 eigenvalue-minimisations  :  1288
 total energy-change (2. order) : 0.1761930E+01  (-0.3108038E+00)
 number of electron     791.9999551 magnetization 
 augmentation part      313.0513677 magnetization 

 Broyden mixing:
  rms(total) = 0.18911E+01    rms(broyden)= 0.18901E+01
  rms(prec ) = 0.21446E+01
  weight for this iteration     100.00

 eigenvalues of (default mixing * dielectric matrix)
  average eigenvalue GAMMA=   0.4478
  1.9749  0.6582  0.6582  0.3979  0.3979  0.2597  0.0717  0.1589  0.1133  0.1133
  0.1222

 Free energy of the ion-electron system (eV)
  ---------------------------------------------------
  alpha Z        PSCENC =      1909.09476555
  Ewald energy   TEWEN  =    163498.49543297
  -Hartree energ DENC   =   -285199.33314444
  -exchange      EXHF   =         0.00000000
  -V(xc)+E(xc)   XCENC  =      3622.76478173
  PAW double counting   =    132292.29898225  -137286.50611640
  entropy T*S    EENTRO =        -0.96337178
  eigenvalues    EBANDS =    -15198.43333771
  atomic energy  EATOM  =    136002.60505376
  Solvation  Ediel_sol  =         0.00000000
  ---------------------------------------------------
  free energy    TOTEN  =      -359.97695407 eV

  energy without entropy =     -359.01358229  energy(sigma->0) =     -359.49526818


--------------------------------------------------------------------------------------------------------




--------------------------------------- Iteration      1(  17)  ---------------------------------------


    POTLOK:  cpu time    0.0421: real time    0.0422
    SETDIJ:  cpu time    0.0049: real time    0.0049
     EDDAV:  cpu time    2.2144: real time    2.2197
       DOS:  cpu time    0.0005: real time    0.0005
    CHARGE:  cpu time    0.0426: real time    0.0427
    MIXING:  cpu time    0.0025: real time    0.0025
    --------------------------------------------
      LOOP:  cpu time    2.3070: real time    2.3125

 eigenvalue-minimisations  :  1312
 total energy-change (2. order) : 0.7808651E+00  (-0.1525325E+00)
 number of electron     791.9999548 magnetization 
 augmentation part      312.6567643 magnetization 

 Broyden mixing:
  rms(total) = 0.15464E+01    rms(broyden)= 0.15456E+01
  rms(prec ) = 0.17579E+01
  weight for this iteration     100.00

 eigenvalues of (default mixing * dielectric matrix)
  average eigenvalue GAMMA=   0.4511
  1.9717  0.7707  0.7707  0.4139  0.4139  0.3261  0.1921  0.0717  0.1129  0.1129
  0.1280  0.1280

 Free energy of the ion-electron system (eV)
  ---------------------------------------------------
  alpha Z        PSCENC =      1909.09476555
  Ewald energy   TEWEN  =    163498.49543297
  -Hartree energ DENC   =   -285217.57745344
  -exchange      EXHF   =         0.00000000
  -V(xc)+E(xc)   XCENC  =      3623.00455468
  PAW double counting   =    132130.02290549  -137122.42010038
  entropy T*S    EENTRO =        -0.95225650
  eigenvalues    EBANDS =    -15181.46899108
  atomic energy  EATOM  =    136002.60505376
  Solvation  Ediel_sol  =         0.00000000
  ---------------------------------------------------
  free energy    TOTEN  =      -359.19608895 eV

  energy without entropy =     -358.24383246  energy(sigma->0) =     -358.71996070


--------------------------------------------------------------------------------------------------------




--------------------------------------- Iteration      1(  18)  ---------------------------------------


    POTLOK:  cpu time    0.0423: real time    0.0424
    SETDIJ:  cpu time    0.0050: real time    0.0050
     EDDAV:  cpu time    2.2126: real time    2.2178
       DOS:  cpu time    0.0006: real time    0.0005
    CHARGE:  cpu time    0.0427: real time    0.0428
    MIXING:  cpu time    0.0025: real time    0.0025
    --------------------------------------------
      LOOP:  cpu time    2.3056: real time    2.3110

 eigenvalue-minimisations  :  1312
 total energy-change (2. order) : 0.4252122E+00  (-0.7870902E-01)
 number of electron     791.9999546 magnetization 
 augmentation part      312.3867982 magnetization 

 Broyden mixing:
  rms(total) = 0.13404E+01    rms(broyden)= 0.13398E+01
  rms(prec ) = 0.15244E+01
  weight for this iteration     100.00

 eigenvalues of (default mixing * dielectric matrix)
  average eigenvalue GAMMA=   0.4662
  1.9905  0.9486  0.9486  0.4400  0.4400  0.3585  0.2370  0.0717  0.1125  0.1125
  0.1413  0.1413  0.1184

 Free energy of the ion-electron system (eV)
  ---------------------------------------------------
  alpha Z        PSCENC =      1909.09476555
  Ewald energy   TEWEN  =    163498.49543297
  -Hartree energ DENC   =   -285228.78893660
  -exchange      EXHF   =         0.00000000
  -V(xc)+E(xc)   XCENC  =      3623.11623589
  PAW double counting   =    131982.69914224  -136972.87683899
  entropy T*S    EENTRO =        -0.97623162
  eigenvalues    EBANDS =    -15172.13949994
  atomic energy  EATOM  =    136002.60505376
  Solvation  Ediel_sol  =         0.00000000
  ---------------------------------------------------
  free energy    TOTEN  =      -358.77087674 eV

  energy without entropy =     -357.79464512  energy(sigma->0) =     -358.28276093


--------------------------------------------------------------------------------------------------------




--------------------------------------- Iteration      1(  19)  ---------------------------------------


    POTLOK:  cpu time    0.0427: real time    0.0428
    SETDIJ:  cpu time    0.0049: real time    0.0049
     EDDAV:  cpu time    2.1955: real time    2.2007
       DOS:  cpu time    0.0006: real time    0.0006
    CHARGE:  cpu time    0.0427: real time    0.0428
    MIXING:  cpu time    0.0027: real time    0.0027
    --------------------------------------------
      LOOP:  cpu time    2.2890: real time    2.2945

 eigenvalue-minimisations  :  1296
 total energy-change (2. order) : 0.2611737E+00  (-0.7510000E-01)
 number of electron     791.9999540 magnetization 
 augmentation part      312.3816540 magnetization 

 Broyden mixing:
  rms(total) = 0.11689E+01    rms(broyden)= 0.11682E+01
  rms(prec ) = 0.13304E+01
  weight for this iteration     100.00

 eigenvalues of (default mixing * dielectric matrix)
  average eigenvalue GAMMA=   0.4893
  1.9781  1.1578  1.1578  0.4793  0.4793  0.3674  0.3674  0.0717  0.1656  0.1656
  0.1130  0.1130  0.1226  0.1109

 Free energy of the ion-electron system (eV)
  ---------------------------------------------------
  alpha Z        PSCENC =      1909.09476555
  Ewald energy   TEWEN  =    163498.49543297
  -Hartree energ DENC   =   -285233.62481432
  -exchange      EXHF   =         0.00000000
  -V(xc)+E(xc)   XCENC  =      3623.06530604
  PAW double counting   =    131836.67065558  -136823.86547844
  entropy T*S    EENTRO =        -0.95695618
  eigenvalues    EBANDS =    -15169.99366805
  atomic energy  EATOM  =    136002.60505376
  Solvation  Ediel_sol  =         0.00000000
  ---------------------------------------------------
  free energy    TOTEN  =      -358.50970309 eV

  energy without entropy =     -357.55274691  energy(sigma->0) =     -358.03122500


--------------------------------------------------------------------------------------------------------




--------------------------------------- Iteration      1(  20)  ---------------------------------------


    POTLOK:  cpu time    0.0424: real time    0.0424
    SETDIJ:  cpu time    0.0049: real time    0.0049
     EDDAV:  cpu time    2.2302: real time    2.2355
       DOS:  cpu time    0.0006: real time    0.0006
    CHARGE:  cpu time    0.0432: real time    0.0433
    MIXING:  cpu time    0.0027: real time    0.0027
    --------------------------------------------
      LOOP:  cpu time    2.3239: real time    2.3294

 eigenvalue-minimisations  :  1320
 total energy-change (2. order) : 0.2805472E+00  (-0.3131197E-01)
 number of electron     791.9999540 magnetization 
 augmentation part      312.4465957 magnetization 

 Broyden mixing:
  rms(total) = 0.95820E+00    rms(broyden)= 0.95794E+00
  rms(prec ) = 0.10797E+01
  weight for this iteration     100.00

 eigenvalues of (default mixing * dielectric matrix)
  average eigenvalue GAMMA=   0.5119
  1.9703  1.3817  1.3817  0.5308  0.5308  0.4078  0.4078  0.2165  0.0717  0.1675
  0.1128  0.1128  0.1466  0.1264  0.1135

 Free energy of the ion-electron system (eV)
  ---------------------------------------------------
  alpha Z        PSCENC =      1909.09476555
  Ewald energy   TEWEN  =    163498.49543297
  -Hartree energ DENC   =   -285234.21582074
  -exchange      EXHF   =         0.00000000
  -V(xc)+E(xc)   XCENC  =      3623.03575675
  PAW double counting   =    131598.20439856  -136581.45339696
  entropy T*S    EENTRO =        -0.99151837
  eigenvalues    EBANDS =    -15173.00382736
  atomic energy  EATOM  =    136002.60505376
  Solvation  Ediel_sol  =         0.00000000
  ---------------------------------------------------
  free energy    TOTEN  =      -358.22915585 eV

  energy without entropy =     -357.23763748  energy(sigma->0) =     -357.73339666


--------------------------------------------------------------------------------------------------------




--------------------------------------- Iteration      1(  21)  ---------------------------------------


    POTLOK:  cpu time    0.0428: real time    0.0429
    SETDIJ:  cpu time    0.0049: real time    0.0049
     EDDAV:  cpu time    2.2060: real time    2.2112
       DOS:  cpu time    0.0006: real time    0.0006
    CHARGE:  cpu time    0.0382: real time    0.0383
    MIXING:  cpu time    0.0028: real time    0.0028
    --------------------------------------------
      LOOP:  cpu time    2.2953: real time    2.3008

 eigenvalue-minimisations  :  1304
 total energy-change (2. order) : 0.2438313E+00  (-0.2850030E-01)
 number of electron     791.9999536 magnetization 
 augmentation part      312.3475695 magnetization 

 Broyden mixing:
  rms(total) = 0.72869E+00    rms(broyden)= 0.72837E+00
  rms(prec ) = 0.83350E+00
  weight for this iteration     100.00

 eigenvalues of (default mixing * dielectric matrix)
  average eigenvalue GAMMA=   0.5392
  1.9680  1.5945  1.5945  0.6311  0.6311  0.4298  0.4298  0.3319  0.0717  0.1838
  0.1128  0.1128  0.1497  0.1497  0.1233  0.1122

 Free energy of the ion-electron system (eV)
  ---------------------------------------------------
  alpha Z        PSCENC =      1909.09476555
  Ewald energy   TEWEN  =    163498.49543297
  -Hartree energ DENC   =   -285246.31942839
  -exchange      EXHF   =         0.00000000
  -V(xc)+E(xc)   XCENC  =      3623.04597562
  PAW double counting   =    131321.28134602  -136300.08972939
  entropy T*S    EENTRO =        -1.00265943
  eigenvalues    EBANDS =    -15165.09608124
  atomic energy  EATOM  =    136002.60505376
  Solvation  Ediel_sol  =         0.00000000
  ---------------------------------------------------
  free energy    TOTEN  =      -357.98532453 eV

  energy without entropy =     -356.98266510  energy(sigma->0) =     -357.48399481


--------------------------------------------------------------------------------------------------------




--------------------------------------- Iteration      1(  22)  ---------------------------------------


    POTLOK:  cpu time    0.0428: real time    0.0429
    SETDIJ:  cpu time    0.0049: real time    0.0049
[...]
    FORCOR:  cpu time    0.0545: real time    0.0547
    FORHAR:  cpu time    0.0240: real time    0.0241
    MIXING:  cpu time    0.0045: real time    0.0045
    OFIELD:  cpu time    0.0001: real time    0.0001

  FORCE on cell =-STRESS in cart. coord.  units (eV):
  Direction    XX          YY          ZZ          XY          YZ          ZX
  --------------------------------------------------------------------------------------
  Alpha Z  1909.09477  1909.09477  1909.09477
  Ewald  213642.17291213128.19396************    57.74398  -661.37140   495.06948
  Hartree250540.18133250159.66191************    89.71467  -412.15794   332.65674
  E(xc)   -5026.65802 -5027.17181 -5030.99087    -0.22259    -1.04286     0.73635
  Local  ************************465638.39113  -161.18706  1047.72978  -800.00054
  n-local  -684.04093  -686.20263  -691.77377     0.01019    -4.54962     2.58857
  augment  5789.83110  5797.15111  5803.23289     6.18012    11.25987   -11.28952
  Kinetic 10961.15396 10973.08251 10998.97992    10.67777    29.08098   -28.23760
  Fock        0.00000     0.00000     0.00000     0.00000     0.00000     0.00000
  -------------------------------------------------------------------------------------
  Total     -30.45339   -29.28691   -25.59551     2.91709     8.94880    -8.47651
  in kB     -25.04047   -24.08133   -21.04605     2.39860     7.35820    -6.96986
  external pressure =      -23.39 kB  Pullay stress =        0.00 kB


 VOLUME and BASIS-vectors are now :
 -----------------------------------------------------------------------------
  energy-cutoff  :      450.00
  volume of cell :     1948.51
      direct lattice vectors                 reciprocal lattice vectors
     9.425102554  3.573298043  0.000000000     0.106099641  0.000000000  0.000000000
     0.000000000 10.079732985  0.000000000    -0.037612667  0.099208977  0.000000000
     0.000000000  0.000000000 20.510139882     0.000000000  0.000000000  0.048756372

  length of vectors
    10.079732985 10.079732985 20.510139882     0.106099641  0.106099641  0.048756372


 FORCES acting on ions
    electron-ion (+dipol)            ewald-force                    non-local-force                 convergence-correction
 -----------------------------------------------------------------------------------------------
   0.505E+03 -.383E+03 0.336E+04   -.507E+03 0.381E+03 -.336E+04   0.131E+01 0.529E+00 0.282E+01   0.541E-01 -.465E-01 -.710E-01
   0.451E+03 -.148E+02 0.386E+03   -.453E+03 0.152E+02 -.386E+03   0.149E+01 -.334E+00 0.633E+00   0.368E-01 0.193E-01 -.227E+00
   0.437E+03 0.323E+02 -.240E+04   -.438E+03 -.323E+02 0.240E+04   0.156E+01 -.957E-01 0.419E+00   -.343E-01 0.830E-01 -.238E+00
   0.146E+03 0.156E+03 -.480E+04   -.147E+03 -.161E+03 0.480E+04   0.361E+00 0.308E+01 -.108E+01   -.610E-01 0.374E-01 0.142E+00
   0.152E+01 -.131E+02 0.472E+04   -.434E+01 0.115E+02 -.471E+04   0.277E+01 0.127E+01 -.902E+01   0.688E-01 -.591E-02 -.580E-01
   0.426E+03 -.359E+02 0.233E+04   -.428E+03 0.367E+02 -.233E+04   0.164E+01 -.674E+00 0.173E+01   0.250E-01 0.197E-01 -.180E+00
   0.403E+03 -.143E+02 -.362E+04   -.403E+03 0.149E+02 0.362E+04   0.590E+00 -.667E+00 -.266E+01   0.177E-01 0.644E-03 -.122E+00
   0.424E+03 -.773E+01 -.620E+03   -.426E+03 0.822E+01 0.620E+03   0.142E+01 -.365E+00 0.487E+00   0.535E-01 -.490E-01 -.276E+00
   0.421E+03 0.912E+02 0.142E+04   -.423E+03 -.911E+02 -.142E+04   0.177E+01 -.651E-01 0.174E+01   -.110E+00 0.586E-01 -.154E+00
   0.451E+03 0.508E+02 -.163E+04   -.452E+03 -.507E+02 0.163E+04   0.114E+01 -.107E+00 0.339E+00   -.421E-02 -.824E-02 -.316E+00
   0.579E+03 -.755E+02 -.452E+04   -.573E+03 0.734E+02 0.451E+04   -.549E+01 0.188E+01 0.598E+01   -.698E-01 -.145E+00 0.385E-01
   0.294E+03 0.401E+03 0.425E+04   -.294E+03 -.398E+03 -.425E+04   0.316E+00 -.250E+01 -.175E+00   -.118E+00 0.887E-02 -.555E-01
   -.502E+03 0.491E+03 -.350E+04   0.500E+03 -.492E+03 0.350E+04   0.145E+01 0.868E+00 -.328E+01   0.628E-02 -.978E-01 -.101E+00
   -.287E+03 0.310E+03 0.483E+04   0.280E+03 -.304E+03 -.483E+04   0.669E+01 -.607E+01 -.377E+01   0.542E-01 0.223E-01 -.360E-01
   -.241E+03 0.473E+03 0.242E+04   0.241E+03 -.475E+03 -.242E+04   0.842E-01 0.147E+01 0.204E+01   -.145E-01 0.657E-01 -.160E+00
   -.227E+03 0.467E+03 -.471E+03   0.227E+03 -.468E+03 0.470E+03   0.127E+00 0.802E+00 0.132E+01   -.205E-01 0.374E-01 -.306E+00
   -.185E+03 0.409E+03 0.139E+04   0.184E+03 -.409E+03 -.140E+04   0.249E+00 0.432E+00 0.947E+00   -.628E-02 -.130E-01 -.177E+00
   -.147E+03 0.439E+03 -.152E+04   0.147E+03 -.440E+03 0.152E+04   0.248E+00 0.109E+01 0.390E+00   -.193E-01 0.749E-01 -.261E+00
   0.153E+03 0.514E+03 -.432E+04   -.152E+03 -.511E+03 0.432E+04   -.100E+01 -.179E+01 0.202E+01   -.103E-01 0.129E+00 0.154E-01
   -.143E+03 0.262E+03 0.413E+04   0.143E+03 -.262E+03 -.414E+04   -.864E+00 0.291E+00 0.561E+01   -.197E-01 0.320E-01 -.134E+00
   -.984E+02 0.658E+03 0.360E+04   0.952E+02 -.652E+03 -.360E+04   0.306E+01 -.483E+01 0.764E+00   -.166E-01 0.152E-01 -.981E-01
   -.138E+03 0.434E+03 0.491E+03   0.138E+03 -.435E+03 -.492E+03   -.767E-01 0.966E+00 0.119E+01   0.318E-01 -.675E-01 -.230E+00
   -.168E+03 0.315E+03 -.246E+04   0.169E+03 -.315E+03 0.246E+04   -.701E+00 0.859E+00 -.459E+00   0.491E-01 -.209E+00 -.236E+00
   -.244E+03 -.204E+03 -.476E+04   0.239E+03 0.207E+03 0.475E+04   0.458E+01 -.309E+01 0.106E+02   -.122E-01 -.113E-01 0.153E+00
   -.655E+03 -.215E+03 -.434E+04   0.651E+03 0.217E+03 0.433E+04   0.367E+01 -.613E+00 0.509E+01   -.514E-01 0.641E-01 0.822E-02
   0.305E+02 -.518E+03 0.425E+04   -.286E+02 0.518E+03 -.425E+04   -.126E+01 -.451E+00 -.172E+01   0.895E-01 -.310E-01 -.639E-01
   -.301E+03 -.416E+03 0.138E+04   0.301E+03 0.417E+03 -.138E+04   -.347E+00 -.104E+01 0.197E-01   -.389E-01 -.337E-01 -.204E+00
   -.367E+03 -.419E+03 -.148E+04   0.367E+03 0.420E+03 0.148E+04   -.644E-01 -.128E+01 0.954E+00   -.479E-01 0.556E-01 -.285E+00
   -.358E+03 -.536E+03 0.344E+04   0.358E+03 0.538E+03 -.344E+04   0.470E-02 -.167E+01 0.428E+01   -.518E-01 0.307E-02 -.179E+00
   -.329E+03 -.454E+03 0.435E+03   0.329E+03 0.455E+03 -.436E+03   0.332E-01 -.118E+01 0.731E+00   0.521E-02 -.480E-01 -.217E+00
   -.222E+03 -.465E+03 -.252E+04   0.222E+03 0.466E+03 0.252E+04   0.154E+00 -.990E+00 -.181E+01   0.117E-02 -.395E-01 -.189E+00
   0.143E+03 -.264E+03 -.473E+04   -.143E+03 0.265E+03 0.472E+04   0.768E-01 -.804E+00 0.296E+01   0.128E-01 0.107E+00 0.124E+00
   -.152E+03 0.296E+02 0.465E+04   0.152E+03 -.251E+02 -.465E+04   0.347E+00 -.395E+01 -.665E+00   -.820E-01 0.361E-01 -.380E-01
   -.277E+03 -.310E+03 0.232E+04   0.277E+03 0.311E+03 -.232E+04   0.205E-01 -.969E+00 0.169E+01   0.244E-01 0.107E+00 -.937E-01
   -.290E+03 -.370E+03 -.554E+03   0.291E+03 0.371E+03 0.553E+03   -.320E+00 -.103E+01 0.109E+01   -.155E-01 0.386E-01 -.318E+00
   -.305E+03 -.278E+03 -.363E+04   0.306E+03 0.278E+03 0.363E+04   0.574E-01 0.803E+00 0.127E+01   0.976E-01 -.932E-02 -.132E+00
   -.168E+03 0.103E+02 -.668E+03   0.170E+03 -.100E+02 0.667E+03   -.171E+01 -.614E+00 0.237E+01   -.550E-02 0.215E-02 -.129E+00
   -.146E+03 0.974E+01 0.150E+04   0.148E+03 -.968E+01 -.150E+04   -.214E+01 -.129E+00 -.363E+00   0.103E-01 0.182E-02 -.213E-01
   -.142E+03 0.717E+00 0.455E+03   0.144E+03 -.668E+00 -.456E+03   -.203E+01 -.949E-01 0.131E+01   -.232E-01 0.164E-01 -.960E-01
   -.157E+03 -.800E+02 0.118E+04   0.158E+03 0.795E+02 -.118E+04   -.108E+01 0.617E+00 0.644E+00   -.253E-01 -.137E-02 -.335E-01
   -.120E+03 -.254E+02 0.754E+02   0.122E+03 0.257E+02 -.766E+02   -.201E+01 -.349E+00 0.134E+01   0.151E-01 -.772E-03 -.882E-01
   -.724E+02 -.124E+01 -.978E+03   0.741E+02 0.167E+01 0.975E+03   -.213E+01 -.605E+00 0.268E+01   0.392E-03 0.536E-01 -.715E-01
   -.438E+01 0.126E+03 -.184E+04   0.391E+01 -.127E+03 0.184E+04   -.915E+00 0.153E+01 -.356E+01   0.117E-01 0.461E-01 0.863E-01
   -.127E+03 -.154E+03 0.195E+04   0.128E+03 0.155E+03 -.196E+04   -.107E+01 -.165E+01 0.492E+01   -.130E-01 0.988E-02 -.200E-01
   -.731E+00 0.117E+03 0.178E+04   0.564E+00 -.118E+03 -.178E+04   0.746E+00 0.960E+00 0.227E+01   0.361E-01 0.123E-01 -.510E-01
   -.113E+03 0.869E+01 0.812E+03   0.115E+03 -.842E+01 -.814E+03   -.196E+01 -.345E+00 0.155E+01   0.420E-01 0.525E-02 -.378E-01
   -.125E+03 -.131E+02 -.297E+03   0.127E+03 0.131E+02 0.296E+03   -.203E+01 -.242E+00 0.112E+01   0.404E-02 -.288E-01 -.156E+00
   -.122E+03 -.984E+02 -.149E+04   0.122E+03 0.995E+02 0.149E+04   -.113E+01 -.129E+01 -.721E+00   0.515E-01 -.596E-01 0.240E-02
   0.103E+03 -.175E+03 0.666E+03   -.103E+03 0.177E+03 -.666E+03   0.722E-01 -.142E+01 -.155E+01   0.345E-01 -.326E-01 -.353E-01
   0.721E+02 -.165E+03 -.434E+03   -.731E+02 0.167E+03 0.435E+03   0.103E+01 -.217E+01 -.120E+01   -.132E-01 -.104E-01 -.116E+00
   0.148E+02 -.176E+03 -.142E+04   -.162E+02 0.178E+03 0.143E+04   0.192E+01 -.215E+01 0.238E+00   -.468E-01 0.456E-01 -.128E-01
   -.765E+01 -.156E+03 0.147E+04   0.785E+01 0.158E+03 -.147E+04   -.663E+00 -.258E+01 0.193E+01   0.181E-01 0.996E-03 -.366E-01
   0.574E+02 -.155E+03 0.287E+03   -.587E+02 0.158E+03 -.287E+03   0.138E+01 -.238E+01 -.396E+00   0.680E-02 0.991E-03 -.999E-01
   0.588E+02 -.159E+03 -.843E+03   -.597E+02 0.161E+03 0.845E+03   0.894E+00 -.194E+01 -.115E+01   0.216E-01 -.341E-01 -.866E-01
   0.164E+03 -.161E+03 -.185E+04   -.166E+03 0.165E+03 0.185E+04   0.244E+01 -.329E+01 -.426E+01   0.761E-02 -.141E-01 0.214E-01
   0.746E+02 -.106E+03 0.981E+03   -.751E+02 0.108E+03 -.980E+03   0.842E+00 -.228E+01 -.134E+01   -.386E-01 0.947E-02 -.205E-01
   0.748E+02 -.134E+03 -.913E+02   -.756E+02 0.136E+03 0.922E+02   0.822E+00 -.231E+01 -.927E+00   -.401E-03 0.214E-01 -.874E-01
   0.942E+02 -.109E+03 -.119E+04   -.945E+02 0.110E+03 0.120E+04   0.411E+00 -.225E+01 -.944E-01   -.343E-01 0.374E-01 -.117E+00
   0.136E+03 -.636E+02 0.188E+04   -.137E+03 0.636E+02 -.189E+04   0.227E+01 -.109E+01 0.450E+01   -.443E-01 -.323E-02 -.256E-01
   0.123E+03 -.148E+03 0.188E+04   -.124E+03 0.150E+03 -.188E+04   0.210E+01 -.233E+01 0.339E+01   0.107E-01 0.259E-01 -.406E-01
   0.104E+03 0.116E+03 0.105E+04   -.105E+03 -.118E+03 -.105E+04   0.147E+01 0.225E+01 -.349E+00   0.321E-01 0.184E-01 -.159E-01
   0.111E+03 0.134E+03 0.571E+01   -.112E+03 -.136E+03 -.571E+01   0.170E+01 0.165E+01 0.300E+00   -.100E-01 0.327E-01 -.110E+00
   0.920E+02 0.174E+03 -.106E+04   -.948E+02 -.176E+03 0.105E+04   0.278E+01 0.200E+01 0.146E+01   0.140E-01 0.462E-01 -.750E-01
   -.718E+02 0.231E+03 -.184E+04   0.715E+02 -.233E+03 0.185E+04   0.324E+00 0.471E+01 -.380E+01   0.135E-01 -.208E-01 0.864E-01
   0.105E+03 0.116E+03 -.378E+03   -.106E+03 -.118E+03 0.379E+03   0.152E+01 0.223E+01 -.475E+00   0.310E-02 0.914E-02 -.934E-01
   0.683E+02 0.563E+02 -.154E+04   -.694E+02 -.570E+02 0.154E+04   0.159E+01 0.767E-01 -.159E+01   -.316E-01 0.650E-01 -.323E-01
   0.123E+03 0.633E+02 0.176E+04   -.124E+03 -.646E+02 -.176E+04   -.363E+00 0.956E+00 0.231E+01   0.122E-01 -.197E-02 -.345E-01
   0.119E+03 0.115E+03 0.707E+03   -.120E+03 -.116E+03 -.707E+03   0.187E+01 0.182E+01 0.386E+00   -.129E-02 -.239E-01 -.616E-01
   0.613E+02 0.122E+03 0.157E+04   -.613E+02 -.123E+03 -.157E+04   0.595E-01 0.849E+00 0.210E+01   -.749E-01 -.156E-02 -.473E-01
   0.111E+03 0.128E+03 0.387E+03   -.113E+03 -.130E+03 -.388E+03   0.186E+01 0.201E+01 0.327E+00   -.904E-02 -.259E-01 -.432E-01
   0.140E+03 0.990E+02 -.752E+03   -.142E+03 -.101E+03 0.752E+03   0.182E+01 0.242E+01 0.640E+00   -.103E-01 -.548E-01 -.126E+00
   0.106E+03 -.580E+02 -.172E+04   -.107E+03 0.579E+02 0.172E+04   0.122E+01 0.791E+00 -.457E+00   0.206E-01 -.634E-01 0.491E-01
 -----------------------------------------------------------------------------------------------
   -.368E+02 0.267E+02 -.397E+02   0.145E-11 -.245E-11 0.637E-11   0.370E+02 -.269E+02 0.461E+02   -.193E+00 0.284E+00 -.645E+01
 
 
 POSITION                                       TOTAL-FORCE (eV/Angst)
 -----------------------------------------------------------------------------------
      3.52812      8.91113      1.95077        -0.241481     -0.552080      0.016955
      4.94442      7.93342      4.57627         0.013179      0.138633     -0.011412
      6.36071      6.95571      7.20177        -0.012685      0.050556     -0.022972
      7.77701      5.97799      9.82727        -0.324977     -1.008054     -0.306156
      5.72562      4.03422      0.20043         0.015332     -0.376881      1.832805
      7.14192      3.05650      2.82594        -0.162344      0.143333     -0.079986
      0.54941      7.60751      8.07694         0.342375     -0.085963      0.420938
      8.55821     12.15852      5.45144         0.204455      0.066723     -0.048254
      1.33062      3.70831      3.70110        -0.213917      0.097371     -0.081342
      2.74691      2.73060      6.32660         0.119511     -0.012935      0.204072
      4.16321      1.75289      8.95211         0.428455     -0.352566     -0.811210
      9.33942      8.25932      1.07560         0.199946      0.901731      0.544262
      0.09369      1.20229      8.43993        -0.839497     -0.295774      0.400240
      5.26990      7.70873      0.56342        -0.695356      0.254503      1.215154
      6.68620      6.73101      3.18892        -0.059844     -0.161780     -0.167774
      8.10249      5.75330      5.81443         0.092414      0.073080     -0.039612
      0.87489      7.38282      4.06409        -0.023930     -0.079138     -0.039796
      2.29119      6.40511      6.68959        -0.076596     -0.091711      0.039313
      3.70749      5.42740      9.31510         0.437631      0.613758     -0.623715
      8.88370     11.93383      1.43859         0.035426      0.136207     -0.697794
      3.07240      2.50591      2.31376        -0.207726      0.613639      0.208036
      4.48869     11.60793      4.93926        -0.061294      0.139598     -0.006704
      5.90499     10.63022      7.56476         0.249480     -0.010900      0.162937
      7.32128      9.65250     10.19026        -0.750785      0.194499     -1.979625
      0.46788      3.60710      9.13360        -0.313694      0.919048     -1.367291
      5.64409     10.11353      1.25709         0.790598      0.301743      0.810597
      7.06039      9.13582      3.88260        -0.130414      0.009173     -0.124006
      8.47669      8.15811      6.50810         0.101541     -0.201725      0.117899
      9.25789      4.25891      2.13226        -0.022274      0.192119     -0.693485
      1.24909      9.78763      4.75776        -0.140091     -0.020234      0.100500
      2.66538      8.80992      7.38327        -0.060918     -0.064367      0.448089
      4.08168      7.83221     10.00877         0.275721     -0.385836     -0.838063
      2.03029      5.88843      0.38193        -0.398100      0.583223      0.732927
      3.44659      4.91072      3.00743         0.035331      0.166462     -0.152939
      4.86289      3.93300      5.63293         0.084892     -0.193799     -0.009520
      6.27918      2.95529      8.25843         0.561845      0.164509     -0.498765
      0.60152      2.86980      7.00134         0.240487     -0.312047      0.904292
      7.19404      8.39852      1.75033        -0.338985     -0.065626     -1.556893
      8.61033      7.42081      4.37584        -0.045096     -0.030716      0.107060
      1.38273      9.05033      2.62550         0.452370      0.183554     -0.529444
      2.79903      8.07262      5.25100         0.059428     -0.081941      0.084231
      4.21532      7.09490      7.87651        -0.367734     -0.121592      0.291035
      5.63162      6.11719     10.50201        -1.373380      0.214574      0.158015
      9.39154     13.60134      0.00000        -0.117464     -0.265861      0.949322
      3.58024      4.17341      0.87517         0.614528      0.061742     -0.916610
      4.99653      3.19570      3.50067        -0.196858     -0.079352     -0.149186
      6.41283     12.29772      6.12617        -0.228434     -0.243187     -0.013703
      7.82912     11.32001      8.75167        -0.736293     -0.282170      1.070643
      4.97612      9.92962      3.51693        -0.630821      0.101145     -0.963845
      6.39241      8.95190      6.14243        -0.033070     -0.047107     -0.185121
      7.80871      7.97419      8.76794         0.497415      0.025930      1.183490
      7.17362      5.05270      1.76660        -0.444117     -0.325160     -0.641705
      8.58992      4.07499      4.39210         0.031683     -0.058161     -0.172566
      0.58111      9.60371      7.01760         0.073563     -0.142939      0.191221
      1.99741      8.62600      9.64310         0.356751      0.120916     -0.598230
      1.36232      5.70451      2.64176         0.251757     -0.583540     -0.190045
      2.77861      4.72680      5.26727        -0.017004     -0.069828     -0.113621
      4.19491      3.74909      7.89277         0.071073     -0.672801      1.285235
      9.37112     10.25552      0.01626         0.993900     -1.036575      0.480225
      3.08334      7.84514      0.00813         1.101199     -0.190116      0.378619
      4.49963      6.86742      2.63363         0.344922      0.104897      0.053660
      5.91593      5.88971      5.25914        -0.001618     -0.081067      0.197491
      7.33222      4.91200      7.88464         0.018705     -0.047219      0.279995
      8.74852      3.93429     10.51014         0.032637      1.848009     -1.417418
      0.10463      6.54152      6.13430         0.016954      0.057931      0.173115
      1.52092      5.56381      8.75980         0.454420     -0.474914      0.583042
      6.69714     12.07024      0.88330        -0.976030     -0.281677     -0.302679
      8.11343     11.09253      3.50880         0.097034      0.081038      0.040265
      0.88583      2.64232      1.75847        -0.015725      0.069539     -0.087966
      2.30213      1.66461      4.38397         0.149215     -0.154349     -0.111203
      3.71843     10.76663      7.00947         0.016566      0.205385      0.389337
      5.13472      9.78891      9.63497         0.395806      0.707120      0.495637
 -----------------------------------------------------------------------------------
    total drift:                                0.038880      0.101204     -0.052134


--------------------------------------------------------------------------------------------------------



  FREE ENERGIE OF THE ION-ELECTRON SYSTEM (eV)
  ---------------------------------------------------
  free  energy   TOTEN  =      -357.71168295 eV

  energy  without entropy=     -356.69099006  energy(sigma->0) =     -357.20133651
 


--------------------------------------------------------------------------------------------------------


    POTLOK:  cpu time    0.0466: real time    0.0479


--------------------------------------------------------------------------------------------------------


     LOOP+:  cpu time   79.1650: real time   79.4396
    4ORBIT:  cpu time    0.0000: real time    0.0000

 total amount of memory used by VASP MPI-rank0    45304. kBytes
=======================================================================

   base      :      30000. kBytes
   nonlr-proj:       2305. kBytes
   fftplans  :       3383. kBytes
   grid      :       6052. kBytes
   one-center:         93. kBytes
   wavefun   :       3471. kBytes
 
  
  
 General timing and accounting informations for this job:
 ========================================================
  
                  Total CPU time used (sec):       81.281
                            User time (sec):       80.602
                          System time (sec):        0.679
                         Elapsed time (sec):       81.978
  
                   Maximum memory used (kb):      223928.
                   Average memory used (kb):           0.
  
                          Minor page faults:        75757
                          Major page faults:            0
                 Voluntary context switches:          879
