"Millerite NiS"                         
           1
     9.425103    3.573298    0.000000
     0.000000   10.079733    0.000000
     0.000000    0.000000   20.686182
   Ni   S 
    37    37
Direct configuration=     1
   0.24679038  0.94522030  0.00890314
   0.39705889  0.79495179  0.13582373
   0.54732741  0.64468327  0.26274432
   0.69759592  0.49441476  0.38966491
   0.84786443  0.34414625  0.51658551
   0.11381506  0.41152895  0.17813060
   0.26408358  0.26126044  0.30505119
   0.41435209  0.11099193  0.43197178
   0.96354655  0.56179746  0.05121001
   0.13110826  0.72756909  0.47427864
   0.68030272  0.17837463  0.09351687
   0.83057124  0.02810611  0.22043746
   0.98083975  0.87783760  0.34735805
   0.35735705  0.57044763  0.10229055
   0.50762556  0.42017912  0.22921114
   0.65789408  0.26991060  0.35613173
   0.80816259  0.11964209  0.48305232
   0.07411322  0.18702479  0.14459741
   0.22438173  0.03675628  0.27151800
   0.37465025  0.88648777  0.39843860
   0.92384471  0.33729331  0.01767682
   0.09140642  0.50306493  0.44074546
   0.64060088  0.95387047  0.05998369
   0.79086939  0.80360195  0.18690428
   0.94113790  0.65333344  0.31382487
   0.03266675  0.15934394  0.44951914
   0.58186121  0.61014947  0.06875737
   0.73212972  0.45988096  0.19567796
   0.88239823  0.30961245  0.32259855
   0.29861738  0.22672663  0.11106423
   0.44888589  0.07645812  0.23798482
   0.59915440  0.92618961  0.36490542
   0.74942292  0.77592110  0.49182601
   0.01537355  0.84330380  0.15337110
   0.16564206  0.69303529  0.28029169
   0.31591057  0.54276677  0.40721228
   0.86510504  0.99357231  0.02645050
   0.03660483  0.95519385  0.50689630
   0.58579930  0.40599939  0.12613453
   0.73606781  0.25573087  0.25305512
   0.88633632  0.10546236  0.37997571
   0.15228695  0.17284506  0.04152080
   0.30255547  0.02257655  0.16844139
   0.45282398  0.87230804  0.29536198
   0.60309249  0.72203952  0.42228258
   0.01931164  0.63915371  0.21074826
   0.16958015  0.48888520  0.33766885
   0.31984866  0.33861669  0.46458944
   0.86904312  0.78942222  0.08382767
   0.48608562  0.84214306  0.04191383
   0.63635413  0.69187455  0.16883442
   0.78662264  0.54160604  0.29575501
   0.93689116  0.39133752  0.42267561
   0.20284179  0.45872023  0.08422070
   0.35311030  0.30845171  0.21114129
   0.50337881  0.15818320  0.33806188
   0.65364733  0.00791469  0.46498247
   0.06986647  0.92502888  0.25344815
   0.22013499  0.77476036  0.38036874
   0.37040350  0.62449185  0.50728933
   0.91959796  0.07529739  0.12652756
   0.20021045  0.79158823  0.08461373
   0.35047897  0.64131971  0.21153432
   0.50074748  0.49105120  0.33845491
   0.65101599  0.34078269  0.46537550
   0.06723514  0.25789688  0.25384118
   0.21750365  0.10762836  0.38076177
   0.36777216  0.95735985  0.50768237
   0.76669811  0.55843390  0.00000000
   0.91696663  0.40816539  0.12692059
   0.48345428  0.17501106  0.04230686
   0.63372280  0.02474255  0.16922745
   0.78399131  0.87447404  0.29614805
   0.93425982  0.72420553  0.42306864
