LAMMPS data file via write_data, version 5 Jun 2019, timestep = 28

74 atoms
2 atom types

0.0000000000000000e+00 1.6884694054200001e+01 xlo xhi
0.0000000000000000e+00 9.5784099999999999e+00 ylo yhi
0.0000000000000000e+00 1.6197619147600001e+01 zlo zhi
0.0000000000000000e+00 0.0000000000000000e+00 0.0000000000000000e+00 xy xz yz

Masses

1 58.71
2 32.06

Atoms # atomic

1 1 1.2596149295126697e+00 8.6365752786263670e+00 4.5579119803319754e+00 0 0 0
2 1 1.6807120366999999e+00 8.8448295298000001e+00 1.9497492390000000e+00 0 0 0
3 1 9.8312243663000007e+00 4.0556245298000002e+00 3.4920210149000002e+00 0 0 0
4 1 1.0497682036393275e+01 3.6707216160853511e+00 1.1133414450670216e+00 0 0 0
5 1 4.0485018225517981e+00 3.9589140274300645e+00 4.1562439840896106e+00 0 0 0
6 1 4.5902997949095994e+00 4.0558037641741560e+00 1.6775011832032023e+00 0 0 0
7 1 1.2256569260855562e+01 8.8623740012582513e+00 5.5240974913366845e+00 0 0 0
8 1 1.2742618274500002e+01 8.8448295298000001e+00 2.9779304176000001e+00 0 0 0
9 1 6.9124755516781056e+00 8.8008457507571070e+00 3.6937619895522436e+00 0 0 0
10 1 7.4775742619430918e+00 8.7787454028351899e+00 1.2767818042028749e+00 0 0 0
11 1 1.5734431631083361e+01 3.2594227074048767e+00 4.6621646944325166e+00 0 0 0
12 1 1.5654012182700001e+01 4.0556245298000002e+00 2.4638398364000000e+00 0 0 0
13 1 8.4932942788708417e+00 5.3209612259964514e+00 5.3573745061934588e+00 0 0 0
14 1 7.6778101065000000e+00 5.3209612259999997e+00 3.0845435678999999e+00 0 0 0
15 1 7.4688095540913890e+00 5.3209612260568973e+00 7.0770627982247170e-01 0 0 0
16 1 1.5828322453000000e+01 5.3175622600000005e-01 4.6268153437999997e+00 0 0 0
17 1 1.6411991831000002e+01 5.3175622600000005e-01 1.5422717759000000e+00 0 0 0
18 1 1.8550223070000005e+00 5.3209612259999997e+00 4.1127247463999996e+00 0 0 0
19 1 2.1545162885044991e+00 5.3209612260504198e+00 1.4730734707112667e+00 0 0 0
20 1 1.0152800409464730e+01 5.3175622605016737e-01 5.1485534478735424e+00 0 0 0
21 1 1.0589204014700000e+01 5.3175622600000005e-01 2.5704529705999999e+00 0 0 0
22 1 4.7664161983000000e+00 5.3175622600000005e-01 3.5986341490999982e+00 0 0 0
23 1 5.0619130149374962e+00 5.3175622605119777e-01 9.6300901852764420e-01 0 0 0
24 1 1.2217614848154268e+01 5.3209612260738322e+00 3.9857849337131488e+00 0 0 0
25 1 1.3500597922900003e+01 5.3209612259999997e+00 2.0563623731999998e+00 0 0 0
26 1 1.2596149294896968e+00 2.0053471733488180e+00 4.5579119803392318e+00 0 0 0
27 1 1.6807120366999999e+00 1.7970929222000001e+00 1.9497492390000000e+00 0 0 0
28 1 9.8312243663000007e+00 6.5862979222000009e+00 3.4920210149000002e+00 0 0 0
29 1 1.0497682036385299e+01 6.9712008358919801e+00 1.1133414450477921e+00 0 0 0
30 1 4.0485018225381957e+00 6.6830084245571806e+00 4.1562439840945018e+00 0 0 0
31 1 4.5902997949338671e+00 6.5861186878956115e+00 1.6775011832384144e+00 0 0 0
32 1 1.2256569260880857e+01 1.7795484507950186e+00 5.5240974913046568e+00 0 0 0
33 1 1.2742618274500002e+01 1.7970929222000001e+00 2.9779304176000001e+00 0 0 0
34 1 6.9124755516625385e+00 1.8410767012371159e+00 3.6937619895586709e+00 0 0 0
35 1 7.4775742619655805e+00 1.8631770492361357e+00 1.2767818042465462e+00 0 0 0
36 1 1.5734431631108521e+01 7.3824997446502554e+00 4.6621646944183386e+00 0 0 0
37 1 1.5654012182700001e+01 6.5862979222000009e+00 2.4638398364000000e+00 0 0 0
38 2 4.1777410765657758e-01 1.9168472370112646e+00 3.8457764826791424e-01 0 0 0
39 2 7.9262239686261529e+00 7.0283187853412921e+00 4.3579713145523113e+00 0 0 0
40 2 8.5054091306000004e+00 6.9321934642000000e+00 1.5660279006000000e+00 0 0 0
41 2 1.6598037283485393e+01 1.9433645987887851e+00 5.9290551335845008e+00 0 0 0
42 2 1.6655921460300000e+01 2.1429884642000001e+00 3.1082996927000002e+00 0 0 0
43 2 2.3163371194857252e+00 6.9720537614841378e+00 5.2702859090813146e+00 0 0 0
44 2 2.6826213141999999e+00 6.9321934642000000e+00 2.5942090953000001e+00 0 0 0
45 2 1.0833133660800000e+01 2.1429884642000001e+00 4.1364808711999999e+00 0 0 0
46 2 1.1503569236567213e+01 1.9397505680224778e+00 1.3296695822632121e+00 0 0 0
47 2 5.1326099687330027e+00 2.2382179978507879e+00 4.7199625729055041e+00 0 0 0
48 2 5.5940152224000004e+00 2.1429884642000001e+00 2.0801184980000000e+00 0 0 0
49 2 1.3744527569000001e+01 6.9321934642000000e+00 3.6223902737999998e+00 0 0 0
50 2 1.4389299120762855e+01 6.7246500872304988e+00 8.9626750547492151e-01 0 0 0
51 2 2.5133042869000000e+00 5.3175622600000005e-01 3.6271661742000001e+00 0 0 0
52 2 2.9995720685065699e+00 5.3175622600797579e-01 9.1587633275147129e-01 0 0 0
53 2 1.0496952487177779e+01 5.3209612260060668e+00 5.0777283849935761e+00 0 0 0
54 2 1.1247485994600000e+01 5.3209612259999997e+00 2.0848943983999999e+00 0 0 0
55 2 5.4246981781999999e+00 5.3209612259999997e+00 3.1130755930999983e+00 0 0 0
56 2 5.4830459099868580e+00 5.3209612260470136e+00 3.0480216306076163e-01 0 0 0
57 2 1.3575210524799999e+01 5.3175622600000005e-01 4.6553473689000002e+00 0 0 0
58 2 1.4203558135810706e+01 5.3175622600687322e-01 2.0429660354761605e+00 0 0 0
59 2 9.0936051273613663e-02 5.3209612260064816e+00 1.4257907609779776e+00 0 0 0
60 2 8.3360920864000008e+00 5.3175622600000005e-01 2.5989849956999982e+00 0 0 0
61 2 1.6486604432899998e+01 5.3209612259999997e+00 4.1412567715999966e+00 0 0 0
62 2 4.1777410765627593e-01 8.7250752149915716e+00 3.8457764826381247e-01 0 0 0
63 2 7.9262239686188307e+00 3.6136036666554290e+00 4.3579713145492907e+00 0 0 0
64 2 8.5054091306000004e+00 3.7097289879000002e+00 1.5660279006000000e+00 0 0 0
65 2 1.6598037283520590e+01 8.6985578532360908e+00 5.9290551335885553e+00 0 0 0
66 2 1.6655921460300000e+01 8.4989339878999992e+00 3.1082996927000002e+00 0 0 0
67 2 2.3163371194837041e+00 3.6698686904937583e+00 5.2702859090594139e+00 0 0 0
68 2 2.6826213141999999e+00 3.7097289879000002e+00 2.5942090953000001e+00 0 0 0
69 2 1.0833133660800000e+01 8.4989339878999992e+00 4.1364808711999999e+00 0 0 0
70 2 1.1503569236554505e+01 8.7021718839612916e+00 1.3296695822699007e+00 0 0 0
71 2 5.1326099687385902e+00 8.4037044541346244e+00 4.7199625728899992e+00 0 0 0
72 2 5.5940152224000004e+00 8.4989339878999992e+00 2.0801184980000000e+00 0 0 0
73 2 1.3744527569000001e+01 3.7097289879000002e+00 3.6223902737999998e+00 0 0 0
74 2 1.4389299120762718e+01 3.9172723647722987e+00 8.9626750547186784e-01 0 0 0

Velocities

1 0.0000000000000000e+00 0.0000000000000000e+00 0.0000000000000000e+00
2 0.0000000000000000e+00 0.0000000000000000e+00 0.0000000000000000e+00
3 0.0000000000000000e+00 0.0000000000000000e+00 0.0000000000000000e+00
4 0.0000000000000000e+00 0.0000000000000000e+00 0.0000000000000000e+00
5 0.0000000000000000e+00 0.0000000000000000e+00 0.0000000000000000e+00
6 0.0000000000000000e+00 0.0000000000000000e+00 0.0000000000000000e+00
7 0.0000000000000000e+00 0.0000000000000000e+00 0.0000000000000000e+00
8 0.0000000000000000e+00 0.0000000000000000e+00 0.0000000000000000e+00
9 0.0000000000000000e+00 0.0000000000000000e+00 0.0000000000000000e+00
10 0.0000000000000000e+00 0.0000000000000000e+00 0.0000000000000000e+00
11 0.0000000000000000e+00 0.0000000000000000e+00 0.0000000000000000e+00
12 0.0000000000000000e+00 0.0000000000000000e+00 0.0000000000000000e+00
13 0.0000000000000000e+00 0.0000000000000000e+00 0.0000000000000000e+00
14 0.0000000000000000e+00 0.0000000000000000e+00 0.0000000000000000e+00
15 0.0000000000000000e+00 0.0000000000000000e+00 0.0000000000000000e+00
16 0.0000000000000000e+00 0.0000000000000000e+00 0.0000000000000000e+00
17 0.0000000000000000e+00 0.0000000000000000e+00 0.0000000000000000e+00
18 0.0000000000000000e+00 0.0000000000000000e+00 0.0000000000000000e+00
19 0.0000000000000000e+00 0.0000000000000000e+00 0.0000000000000000e+00
20 0.0000000000000000e+00 0.0000000000000000e+00 0.0000000000000000e+00
21 0.0000000000000000e+00 0.0000000000000000e+00 0.0000000000000000e+00
22 0.0000000000000000e+00 0.0000000000000000e+00 0.0000000000000000e+00
23 0.0000000000000000e+00 0.0000000000000000e+00 0.0000000000000000e+00
24 0.0000000000000000e+00 0.0000000000000000e+00 0.0000000000000000e+00
25 0.0000000000000000e+00 0.0000000000000000e+00 0.0000000000000000e+00
26 0.0000000000000000e+00 0.0000000000000000e+00 0.0000000000000000e+00
27 0.0000000000000000e+00 0.0000000000000000e+00 0.0000000000000000e+00
28 0.0000000000000000e+00 0.0000000000000000e+00 0.0000000000000000e+00
29 0.0000000000000000e+00 0.0000000000000000e+00 0.0000000000000000e+00
30 0.0000000000000000e+00 0.0000000000000000e+00 0.0000000000000000e+00
31 0.0000000000000000e+00 0.0000000000000000e+00 0.0000000000000000e+00
32 0.0000000000000000e+00 0.0000000000000000e+00 0.0000000000000000e+00
33 0.0000000000000000e+00 0.0000000000000000e+00 0.0000000000000000e+00
34 0.0000000000000000e+00 0.0000000000000000e+00 0.0000000000000000e+00
35 0.0000000000000000e+00 0.0000000000000000e+00 0.0000000000000000e+00
36 0.0000000000000000e+00 0.0000000000000000e+00 0.0000000000000000e+00
37 0.0000000000000000e+00 0.0000000000000000e+00 0.0000000000000000e+00
38 0.0000000000000000e+00 0.0000000000000000e+00 0.0000000000000000e+00
39 0.0000000000000000e+00 0.0000000000000000e+00 0.0000000000000000e+00
40 0.0000000000000000e+00 0.0000000000000000e+00 0.0000000000000000e+00
41 0.0000000000000000e+00 0.0000000000000000e+00 0.0000000000000000e+00
42 0.0000000000000000e+00 0.0000000000000000e+00 0.0000000000000000e+00
43 0.0000000000000000e+00 0.0000000000000000e+00 0.0000000000000000e+00
44 0.0000000000000000e+00 0.0000000000000000e+00 0.0000000000000000e+00
45 0.0000000000000000e+00 0.0000000000000000e+00 0.0000000000000000e+00
46 0.0000000000000000e+00 0.0000000000000000e+00 0.0000000000000000e+00
47 0.0000000000000000e+00 0.0000000000000000e+00 0.0000000000000000e+00
48 0.0000000000000000e+00 0.0000000000000000e+00 0.0000000000000000e+00
49 0.0000000000000000e+00 0.0000000000000000e+00 0.0000000000000000e+00
50 0.0000000000000000e+00 0.0000000000000000e+00 0.0000000000000000e+00
51 0.0000000000000000e+00 0.0000000000000000e+00 0.0000000000000000e+00
52 0.0000000000000000e+00 0.0000000000000000e+00 0.0000000000000000e+00
53 0.0000000000000000e+00 0.0000000000000000e+00 0.0000000000000000e+00
54 0.0000000000000000e+00 0.0000000000000000e+00 0.0000000000000000e+00
55 0.0000000000000000e+00 0.0000000000000000e+00 0.0000000000000000e+00
56 0.0000000000000000e+00 0.0000000000000000e+00 0.0000000000000000e+00
57 0.0000000000000000e+00 0.0000000000000000e+00 0.0000000000000000e+00
58 0.0000000000000000e+00 0.0000000000000000e+00 0.0000000000000000e+00
59 0.0000000000000000e+00 0.0000000000000000e+00 0.0000000000000000e+00
60 0.0000000000000000e+00 0.0000000000000000e+00 0.0000000000000000e+00
61 0.0000000000000000e+00 0.0000000000000000e+00 0.0000000000000000e+00
62 0.0000000000000000e+00 0.0000000000000000e+00 0.0000000000000000e+00
63 0.0000000000000000e+00 0.0000000000000000e+00 0.0000000000000000e+00
64 0.0000000000000000e+00 0.0000000000000000e+00 0.0000000000000000e+00
65 0.0000000000000000e+00 0.0000000000000000e+00 0.0000000000000000e+00
66 0.0000000000000000e+00 0.0000000000000000e+00 0.0000000000000000e+00
67 0.0000000000000000e+00 0.0000000000000000e+00 0.0000000000000000e+00
68 0.0000000000000000e+00 0.0000000000000000e+00 0.0000000000000000e+00
69 0.0000000000000000e+00 0.0000000000000000e+00 0.0000000000000000e+00
70 0.0000000000000000e+00 0.0000000000000000e+00 0.0000000000000000e+00
71 0.0000000000000000e+00 0.0000000000000000e+00 0.0000000000000000e+00
72 0.0000000000000000e+00 0.0000000000000000e+00 0.0000000000000000e+00
73 0.0000000000000000e+00 0.0000000000000000e+00 0.0000000000000000e+00
74 0.0000000000000000e+00 0.0000000000000000e+00 0.0000000000000000e+00
