       N       E                     dE             d eps       ncg     rms          rms(c)
DAV:   1     0.133544417724E+05    0.13354E+05   -0.67826E+05  1552   0.166E+03
DAV:   2     0.880218487365E+03   -0.12474E+05   -0.12040E+05  1344   0.535E+02
DAV:   3    -0.452922310091E+03   -0.13331E+04   -0.12487E+04  1456   0.187E+02
DAV:   4    -0.544073404612E+03   -0.91151E+02   -0.89947E+02  1480   0.431E+01
DAV:   5    -0.547761961417E+03   -0.36886E+01   -0.36819E+01  1688   0.930E+00    0.966E+01
DAV:   6    -0.682683240929E+03   -0.13492E+03   -0.13092E+03  1568   0.120E+02    0.190E+02
DAV:   7    -0.523490762003E+03    0.15919E+03   -0.23886E+02  1488   0.735E+01    0.957E+01
DAV:   8    -0.682177049182E+03   -0.15869E+03   -0.16888E+02  1592   0.118E+02    0.186E+02
DAV:   9    -0.566818245729E+03    0.11536E+03   -0.25551E+02  1728   0.690E+01    0.119E+02
DAV:  10    -0.529419394933E+03    0.37399E+02   -0.98048E+01  1800   0.580E+01    0.973E+01
DAV:  11    -0.519617454775E+03    0.98019E+01   -0.11298E+02  1776   0.527E+01    0.995E+01
DAV:  12    -0.516149400959E+03    0.34681E+01   -0.74331E+01  1752   0.379E+01    0.684E+01
DAV:  13    -0.510169420100E+03    0.59800E+01   -0.51315E+01  1632   0.429E+01    0.668E+01
DAV:  14    -0.498365031073E+03    0.11804E+02   -0.30031E+01  1560   0.343E+01    0.619E+01
DAV:  15    -0.492115080673E+03    0.62500E+01   -0.23065E+01  1760   0.186E+01    0.474E+01
DAV:  16    -0.484212590777E+03    0.79025E+01   -0.11498E+01  1728   0.189E+01    0.340E+01
DAV:  17    -0.482456109632E+03    0.17565E+01   -0.83868E+00  1744   0.145E+01    0.256E+01
DAV:  18    -0.481905819938E+03    0.55029E+00   -0.24442E+00  1728   0.791E+00    0.228E+01
DAV:  19    -0.481430277707E+03    0.47554E+00   -0.91330E-01  1680   0.576E+00    0.212E+01
DAV:  20    -0.481326799071E+03    0.10348E+00   -0.12493E+00  1568   0.696E+00    0.206E+01
DAV:  21    -0.480476281136E+03    0.85052E+00   -0.18499E+00  1840   0.893E+00    0.177E+01
DAV:  22    -0.479762651108E+03    0.71363E+00   -0.14521E+00  1736   0.644E+00    0.112E+01
DAV:  23    -0.479385399120E+03    0.37725E+00   -0.92966E-01  1752   0.560E+00    0.733E+00
DAV:  24    -0.479339908077E+03    0.45491E-01   -0.36998E-01  1712   0.253E+00    0.695E+00
DAV:  25    -0.479286106586E+03    0.53801E-01   -0.11136E-01  1448   0.148E+00    0.606E+00
DAV:  26    -0.479299148738E+03   -0.13042E-01   -0.74983E-02  1696   0.160E+00    0.610E+00
DAV:  27    -0.479220429348E+03    0.78719E-01   -0.74827E-02  1920   0.161E+00    0.474E+00
DAV:  28    -0.479246407822E+03   -0.25978E-01   -0.18320E-01  1728   0.269E+00    0.550E+00
DAV:  29    -0.479170373257E+03    0.76035E-01   -0.25465E-01  1776   0.276E+00    0.375E+00
DAV:  30    -0.479144692662E+03    0.25681E-01   -0.13903E-01  1704   0.186E+00    0.280E+00
DAV:  31    -0.479127056974E+03    0.17636E-01   -0.60046E-02  1480   0.130E+00    0.215E+00
DAV:  32    -0.479124704426E+03    0.23525E-02   -0.26710E-02  1728   0.873E-01    0.182E+00
DAV:  33    -0.479115908540E+03    0.87959E-02   -0.12862E-02  1728   0.674E-01    0.145E+00
DAV:  34    -0.479114633671E+03    0.12749E-02   -0.71445E-03  1664   0.576E-01    0.132E+00
DAV:  35    -0.479109123520E+03    0.55102E-02   -0.75209E-03  1792   0.586E-01    0.843E-01
DAV:  36    -0.479107396461E+03    0.17271E-02   -0.49785E-03  1712   0.456E-01    0.608E-01
DAV:  37    -0.479107076854E+03    0.31961E-03   -0.31020E-03  1640   0.316E-01    0.431E-01
DAV:  38    -0.479106877592E+03    0.19926E-03   -0.15278E-03  1536   0.239E-01    0.326E-01
DAV:  39    -0.479106889494E+03   -0.11903E-04   -0.44089E-04  1112   0.117E-01
   1 F= -.47910689E+03 E0= -.47846550E+03  d E =-.128278E+01
