 vasp.5.4.4.18Apr17-6-g9f103f2a35 (build Aug 13 2019 17:33:20) gamma-only       
  
 executed on             LinuxIFC date 2020.05.10  12:27:50
 running on   12 total cores
 distrk:  each k-point on   12 cores,    1 groups
 distr:  one band on NCORES_PER_BAND=   6 cores,    2 groups


--------------------------------------------------------------------------------------------------------


 INCAR:
 POTCAR:    PAW_PBE Ni_pv 06Sep2000               
 POTCAR:    PAW_PBE S 06Sep2000                   
 POTCAR:    PAW_PBE Ni_pv 06Sep2000               
   VRHFIN =Ni:                                                                  
   LEXCH  = PE                                                                  
   EATOM  =  3501.1230 eV,  257.3253 Ry                                         
                                                                                
   TITEL  = PAW_PBE Ni_pv 06Sep2000                                             
   LULTRA =        F    use ultrasoft PP ?                                      
   IUNSCR =        1    unscreen: 0-lin 1-nonlin 2-no                           
   RPACOR =    1.500    partial core radius                                     
   POMASS =   58.690; ZVAL   =   16.000    mass and valenz                      
   RCORE  =    2.000    outmost cutoff radius                                   
   RWIGS  =    2.000; RWIGS  =    1.058    wigner-seitz radius (au A)           
   ENMAX  =  367.986; ENMIN  =  275.989 eV                                      
   RCLOC  =    1.301    cutoff for local pot                                    
   LCOR   =        T    correct aug charges                                     
   LPAW   =        T    paw PP                                                  
   EAUG   =  703.443                                                            
   DEXC   =    0.000                                                            
   RMAX   =    2.041    core radius for proj-oper                               
   RAUG   =    1.300    factor for augmentation sphere                          
   RDEP   =    2.103    radius for radial grids                                 
   RDEPT  =    1.618    core radius for aug-charge                              
                                                                                
   Atomic configuration                                                         
    8 entries                                                                   
     n  l   j            E        occ.                                          
     1  0  0.50     -8206.4253   2.0000                                         
     2  0  0.50      -976.1748   2.0000                                         
     2  1  1.50      -839.0571   6.0000                                         
     3  0  0.50      -105.9991   2.0000                                         
     3  1  1.50       -66.4603   6.0000                                         
     3  2  2.50        -4.6458   9.0000                                         
     4  0  0.50        -4.4926   1.0000                                         
     4  3  2.50        -1.3606   0.0000                                         
   Description                                                                  
     l       E           TYP  RCUT    TYP  RCUT                                 
     1    -66.4602962     23  1.700                                             
     1     -1.3605826     23  1.700                                             
     2     -4.6457867     23  2.000                                             
     2     -6.0063693     23  2.000                                             
     0     -4.4925576     23  1.900                                             
     0     16.3626226     23  1.900                                             
  local pseudopotential read in
  partial core-charges read in
  partial kinetic energy density read in
  atomic valenz-charges read in
  non local Contribution for L=           1  read in
    real space projection operators read in
  non local Contribution for L=           1  read in
    real space projection operators read in
  non local Contribution for L=           2  read in
    real space projection operators read in
  non local Contribution for L=           2  read in
    real space projection operators read in
  non local Contribution for L=           0  read in
    real space projection operators read in
  non local Contribution for L=           0  read in
    real space projection operators read in
    PAW grid and wavefunctions read in
 
   number of l-projection  operators is LMAX  =           6
   number of lm-projection operators is LMMAX =          18
 
 POTCAR:    PAW_PBE S 06Sep2000                   
   VRHFIN =S : s2p4                                                             
   LEXCH  = PE                                                                  
   EATOM  =   276.8230 eV,   20.3459 Ry                                         
                                                                                
   TITEL  = PAW_PBE S 06Sep2000                                                 
   LULTRA =        F    use ultrasoft PP ?                                      
   IUNSCR =        1    unscreen: 0-lin 1-nonlin 2-no                           
   RPACOR =    1.500    partial core radius                                     
   POMASS =   32.066; ZVAL   =    6.000    mass and valenz                      
   RCORE  =    1.900    outmost cutoff radius                                   
   RWIGS  =    2.200; RWIGS  =    1.164    wigner-seitz radius (au A)           
   ENMAX  =  258.689; ENMIN  =  194.016 eV                                      
   ICORE  =        2    local potential                                         
   LCOR   =        T    correct aug charges                                     
   LPAW   =        T    paw PP                                                  
   EAUG   =  335.092                                                            
   DEXC   =    0.000                                                            
   RMAX   =    1.942    core radius for proj-oper                               
   RAUG   =    1.300    factor for augmentation sphere                          
   RDEP   =    1.954    radius for radial grids                                 
   RDEPT  =    1.744    core radius for aug-charge                              
                                                                                
   Atomic configuration                                                         
    6 entries                                                                   
     n  l   j            E        occ.                                          
     1  0  0.50     -2405.8406   2.0000                                         
     2  0  0.50      -211.7007   2.0000                                         
     2  1  1.50      -156.4958   6.0000                                         
     3  0  0.50       -17.2562   2.0000                                         
     3  1  0.50        -7.0085   4.0000                                         
     3  2  1.50        -6.8029   0.0000                                         
   Description                                                                  
     l       E           TYP  RCUT    TYP  RCUT                                 
     0    -17.2561641     23  1.900                                             
     0    -15.8743224     23  1.900                                             
     1     -7.0085400     23  1.900                                             
     1     -2.7779785     23  1.900                                             
     2     -6.8029130     23  1.900                                             
  local pseudopotential read in
  partial core-charges read in
  partial kinetic energy density read in
  atomic valenz-charges read in
  non local Contribution for L=           0  read in
    real space projection operators read in
  non local Contribution for L=           0  read in
    real space projection operators read in
  non local Contribution for L=           1  read in
    real space projection operators read in
  non local Contribution for L=           1  read in
    real space projection operators read in
    PAW grid and wavefunctions read in
 
   number of l-projection  operators is LMAX  =           4
   number of lm-projection operators is LMMAX =           8
 
 Optimization of the real space projectors (new method)

 maximal supplied QI-value         = 18.90
 optimisation between [QCUT,QGAM] = [ 10.77, 21.73] = [ 32.49,132.25] Ry 
 Optimized for a Real-space Cutoff    1.38 Angstroem

   l    n(q)    QCUT    max X(q) W(low)/X(q) W(high)/X(q)  e(spline) 
   1      8    10.771     2.836    0.40E-04    0.29E-04    0.12E-06
   1      8    10.771     4.023    0.10E-03    0.48E-04    0.29E-06
   2      8    10.771    73.368    0.42E-03    0.97E-04    0.44E-06
   2      8    10.771    69.010    0.42E-03    0.99E-04    0.45E-06
   0      9    10.771    54.797    0.10E-03    0.56E-04    0.74E-07
   0      9    10.771    24.266    0.89E-04    0.49E-04    0.67E-07
 Optimization of the real space projectors (new method)

 maximal supplied QI-value         = 19.84
 optimisation between [QCUT,QGAM] = [ 10.71, 21.63] = [ 32.15,130.99] Ry 
 Optimized for a Real-space Cutoff    1.19 Angstroem

   l    n(q)    QCUT    max X(q) W(low)/X(q) W(high)/X(q)  e(spline) 
   0      8    10.715   187.594    0.41E-03    0.53E-04    0.66E-07
   0      8    10.715   164.243    0.41E-03    0.53E-04    0.65E-07
   1      7    10.715    67.533    0.19E-03    0.59E-03    0.68E-07
   1      7    10.715    50.729    0.19E-03    0.58E-03    0.67E-07
  PAW_PBE Ni_pv 06Sep2000               :
 energy of atom  1       EATOM=-3501.1230
 kinetic energy error for atom=    0.0925 (will be added to EATOM!!)
  PAW_PBE S 06Sep2000                   :
 energy of atom  2       EATOM= -276.8230
 kinetic energy error for atom=    0.0033 (will be added to EATOM!!)
 
 
 POSCAR: Type_026 Type_126                       
  positions in cartesian coordinates
  No initial velocities read in
 exchange correlation table for  LEXCH =        8
   RHO(1)=    0.500       N(1)  =     2000
   RHO(2)=  100.500       N(2)  =     4000
 


--------------------------------------------------------------------------------------------------------


 ion  position               nearest neighbor table
   1  0.439  0.464  0.163-  35 2.06  44 2.08  29 2.25  36 2.36  45 2.36   5 2.53  22 2.53
   2  0.492  0.451  0.324-  41 2.02  36 2.04  45 2.05  23 2.49   6 2.53
   3  0.235  0.828  0.104-  38 2.07  37 2.07  29 2.08  33 2.15
   4  0.207  0.974  0.237-  34 2.10  27 2.11  33 2.11  38 2.12  12 2.41
   5  0.439  0.200  0.163-  39 2.07  35 2.09  33 2.25  36 2.36  40 2.36   1 2.53  22 2.53
   6  0.474  0.188  0.322-  36 2.04  41 2.06  40 2.12  34 2.28  13 2.38   2 2.53
   7  0.158  0.575  0.118-  30 2.06  37 2.08  29 2.23  31 2.26   8 2.40  24 2.44   9 2.48
   8  0.203  0.694  0.238-  38 2.07  31 2.13  29 2.15   7 2.40  12 2.42
   9  0.155  0.331  0.166-  30 2.07  27 2.09  35 2.09  31 2.11   7 2.48
  10  0.182  0.332  0.319-  28 2.08  32 2.10  36 2.25  27 2.26  31 2.26  19 2.48
  11  0.462  0.860  0.092-  50 2.05  51 2.11  33 2.19  12 2.43  29 2.56
  12  0.382  0.832  0.222-  33 2.11  29 2.11  34 2.25  13 2.32   4 2.41   8 2.42  11 2.43  51 2.48

  13  0.524  0.953  0.292-  34 2.02  52 2.07  17 2.25  12 2.32   6 2.38  51 2.38  40 2.42
  14  0.939  0.464  0.163-  30 2.05  48 2.11  42 2.25  49 2.36  31 2.36
  15  0.976  0.481  0.319-  32 2.05  49 2.06  31 2.07  43 2.12
  16  0.656  0.998  0.110-  39 2.07  50 2.09  51 2.11  46 2.13
  17  0.715  0.964  0.253-  52 2.16  47 2.20  40 2.25  13 2.25  51 2.26  46 2.26  26 2.50  25 2.53
                            21 2.53
  18  0.921  0.177  0.193-  49 2.07  46 2.09  48 2.14  27 2.29  47 2.37  19 2.52
  19  0.992  0.204  0.331-  28 2.10  32 2.10  27 2.11  49 2.14  47 2.16  10 2.48  18 2.52
  20  0.661  0.691  0.100-  50 2.06  51 2.08  44 2.08  42 2.16
  21  0.715  0.700  0.253-  52 2.13  43 2.15  45 2.25  51 2.26  42 2.26  25 2.53  17 2.53
  22  0.631  0.332  0.139-  39 2.07  44 2.07  48 2.12  40 2.36  45 2.36   5 2.53   1 2.53
  23  0.683  0.331  0.299-  41 2.06  40 2.07  45 2.08  49 2.14   2 2.49
  24  0.989  0.730  0.097-  37 2.03  42 2.05  38 2.07   7 2.44
  25  0.907  0.832  0.229-  43 2.15  47 2.18  38 2.25  42 2.26  46 2.26  26 2.48  17 2.53  21 2.53

  26  0.828  0.856  0.363-  52 2.03  43 2.04  47 2.07  25 2.48  17 2.50
  27  0.111  0.164  0.239-   9 2.09   4 2.11  19 2.11  10 2.26  18 2.29  28 2.76
  28  0.146  0.173  0.398-  10 2.08  32 2.09  19 2.10  27 2.76
  29  0.336  0.664  0.149-   3 2.08  12 2.11   8 2.15   7 2.23   1 2.25  11 2.56
  30  0.056  0.414  0.076-  14 2.05   7 2.06   9 2.07
  31  0.111  0.500  0.239-  15 2.07   9 2.11   8 2.13   7 2.26  10 2.26  14 2.36
  32  0.053  0.363  0.405-  15 2.05  28 2.09  10 2.10  19 2.10
  33  0.336  1.000  0.149-   4 2.11  12 2.11   3 2.15  11 2.19   5 2.25
  34  0.352  0.999  0.312-  13 2.02   4 2.10  12 2.25   6 2.28
  35  0.319  0.334  0.109-   1 2.06   5 2.09   9 2.09
  36  0.368  0.332  0.269-   2 2.04   6 2.04  10 2.25   1 2.36   5 2.36
  37  0.133  0.713  0.027-  24 2.03   3 2.07   7 2.08
  38  0.092  0.832  0.179-   3 2.07   8 2.07  24 2.07   4 2.12  25 2.25
  39  0.560  0.170  0.074-   5 2.07  22 2.07  16 2.07
  40  0.611  0.164  0.239-  23 2.07   6 2.12  17 2.25  22 2.36   5 2.36  13 2.42
  41  0.575  0.313  0.394-   2 2.02   6 2.06  23 2.06
  42  0.836  0.664  0.149-  24 2.05  20 2.16  14 2.25  25 2.26  21 2.26
  43  0.879  0.671  0.314-  26 2.04  15 2.12  21 2.15  25 2.15
  44  0.569  0.506  0.080-  22 2.07  20 2.08   1 2.08  45 2.77
  45  0.611  0.500  0.239-   2 2.05  23 2.08  21 2.25  22 2.36   1 2.36  44 2.77
  46  0.836  1.000  0.149-  18 2.09  16 2.13  25 2.26  17 2.26  47 2.65
  47  0.891  0.022  0.298-  26 2.07  19 2.16  25 2.18  17 2.20  18 2.37  46 2.65
  48  0.817  0.314  0.122-  14 2.11  22 2.12  18 2.14  49 2.60
  49  0.868  0.332  0.269-  15 2.06  18 2.07  19 2.14  23 2.14  14 2.36  48 2.60
  50  0.613  0.850  0.025-  11 2.05  20 2.06  16 2.09  51 2.67
  51  0.592  0.832  0.179-  20 2.08  16 2.11  11 2.11  17 2.26  21 2.26  13 2.38  12 2.48  50 2.67

  52  0.652  0.828  0.344-  26 2.03  13 2.07  21 2.13  17 2.16
 
  LATTYP: Found a simple orthorhombic cell.
 ALAT       =     9.5784100000
 B/A-ratio  =     1.1751911892
 C/A-ratio  =     1.7949213288
  
  Lattice vectors:
  
 A1 = (   0.0000000000,  -9.5784100000,   0.0000000000)
 A2 = ( -11.2564630382,   0.0000000000,   0.0000000000)
 A3 = (   0.0000000000,   0.0000000000, -17.1924924047)


Analysis of symmetry for initial positions (statically):
=====================================================================
 Subroutine PRICEL returns:
 Original cell was already a primitive cell.
 

 Routine SETGRP: Setting up the symmetry group for a 
 simple orthorhombic supercell.


 Subroutine GETGRP returns: Found  1 space group operations
 (whereof  1 operations were pure point group operations)
 out of a pool of  8 trial point group operations.


The static configuration has the point symmetry C_1 .


Analysis of symmetry for dynamics (positions and initial velocities):
=====================================================================
 Subroutine PRICEL returns:
 Original cell was already a primitive cell.
 

 Routine SETGRP: Setting up the symmetry group for a 
 simple orthorhombic supercell.


 Subroutine GETGRP returns: Found  1 space group operations
 (whereof  1 operations were pure point group operations)
 out of a pool of  8 trial point group operations.


The dynamic configuration has the point symmetry C_1 .


 Subroutine INISYM returns: Found  1 space group operations
 (whereof  1 operations are pure point group operations),
 and found     1 'primitive' translations

 
 
 KPOINTS: gamma-point-only calculation. no periodi

Automatic generation of k-mesh.
Space group operators:
 irot       det(A)        alpha          n_x          n_y          n_z        tau_x        tau_y        tau_z
    1     1.000000     0.000000     1.000000     0.000000     0.000000     0.000000     0.000000     0.000000
 
 Subroutine IBZKPT returns following result:
 ===========================================
 
 Found      1 irreducible k-points:
 
 Following reciprocal coordinates:
            Coordinates               Weight
  0.000000  0.000000  0.000000      1.000000
 
 Following cartesian coordinates:
            Coordinates               Weight
  0.000000  0.000000  0.000000      1.000000
 


--------------------------------------------------------------------------------------------------------




 Dimension of arrays:
   k-points           NKPTS =      1   k-points in BZ     NKDIM =      1   number of bands    NBANDS=    344
   number of dos      NEDOS =    301   number of ions     NIONS =     52
   non local maximal  LDIM  =      6   non local SUM 2l+1 LMDIM =     18
   total plane-waves  NPLWV = 270000
   max r-space proj   IRMAX =   1656   max aug-charges    IRDMAX=   4788
   dimension x,y,z NGX =    60 NGY =   50 NGZ =   90
   dimension x,y,z NGXF=   120 NGYF=  100 NGZF=  180
   support grid    NGXF=   120 NGYF=  100 NGZF=  180
   ions per type =              26  26
   NGX,Y,Z   is equivalent  to a cutoff of   8.86,  8.68,  8.70 a.u.
   NGXF,Y,Z  is equivalent  to a cutoff of  17.72, 17.36, 17.41 a.u.

 SYSTEM =  "Millerite NiS"                         
 POSCAR =  Type_026 Type_126                       

 Startparameter for this run:
   NWRITE =      2    write-flag & timer
   PREC   = normal    normal or accurate (medium, high low for compatibility)
   ISTART =      0    job   : 0-new  1-cont  2-samecut
   ICHARG =      2    charge: 1-file 2-atom 10-const
   ISPIN  =      1    spin polarized calculation?
   LNONCOLLINEAR =      F non collinear calculations
   LSORBIT =      F    spin-orbit coupling
   INIWAV =      1    electr: 0-lowe 1-rand  2-diag
   LASPH  =      F    aspherical Exc in radial PAW
   METAGGA=      F    non-selfconsistent MetaGGA calc.

 Electronic Relaxation 1
   ENCUT  =  450.0 eV  33.07 Ry    5.75 a.u.  19.47 16.57 29.74*2*pi/ulx,y,z
   ENINI  =  450.0     initial cutoff
   ENAUG  =  703.4 eV  augmentation charge cutoff
   NELM   =    100;   NELMIN=  2; NELMDL= -5     # of ELM steps 
   EDIFF  = 0.1E-03   stopping-criterion for ELM
   LREAL  =      T    real-space projection
   NLSPLINE    = F    spline interpolate recip. space projectors
   LCOMPAT=      F    compatible to vasp.4.4
   GGA_COMPAT  = T    GGA compatible to vasp.4.4-vasp.4.6
   LMAXPAW     = -100 max onsite density
   LMAXMIX     =    2 max onsite mixed and CHGCAR
   VOSKOWN=      0    Vosko Wilk Nusair interpolation
   ROPT   =   -0.00050  -0.00050
 Ionic relaxation
   EDIFFG = 0.1E-02   stopping-criterion for IOM
   NSW    =      0    number of steps for IOM
   NBLOCK =      1;   KBLOCK =      1    inner block; outer block 
   IBRION =     -1    ionic relax: 0-MD 1-quasi-New 2-CG
   NFREE  =      0    steps in history (QN), initial steepest desc. (CG)
   ISIF   =      2    stress and relaxation
   IWAVPR =     10    prediction:  0-non 1-charg 2-wave 3-comb
   ISYM   =      2    0-nonsym 1-usesym 2-fastsym
   LCORR  =      T    Harris-Foulkes like correction to forces

   POTIM  = 0.5000    time-step for ionic-motion
   TEIN   =    0.0    initial temperature
   TEBEG  =    0.0;   TEEND  =   0.0 temperature during run
   SMASS  =  -3.00    Nose mass-parameter (am)
   estimated Nose-frequenzy (Omega)   =  0.10E-29 period in steps =****** mass=  -0.290E-26a.u.
   SCALEE = 1.0000    scale energy and forces
   NPACO  =    256;   APACO  = 16.0  distance and # of slots for P.C.
   PSTRESS=    0.0 pullay stress

  Mass of Ions in am
   POMASS =  58.69 32.07
  Ionic Valenz
   ZVAL   =  16.00  6.00
  Atomic Wigner-Seitz radii
   RWIGS  =  -1.00 -1.00
  virtual crystal weights 
   VCA    =   1.00  1.00
   NELECT =     572.0000    total number of electrons
   NUPDOWN=      -1.0000    fix difference up-down

 DOS related values:
   EMIN   =  10.00;   EMAX   =-10.00  energy-range for DOS
   EFERMI =   0.00
   ISMEAR =     0;   SIGMA  =   0.20  broadening in eV -4-tet -1-fermi 0-gaus

 Electronic relaxation 2 (details)
   IALGO  =     38    algorithm
   LDIAG  =      T    sub-space diagonalisation (order eigenvalues)
   LSUBROT=      F    optimize rotation matrix (better conditioning)
   TURBO    =      0    0=normal 1=particle mesh
   IRESTART =      0    0=no restart 2=restart with 2 vectors
   NREBOOT  =      0    no. of reboots
   NMIN     =      0    reboot dimension
   EREF     =   0.00    reference energy to select bands
   IMIX   =      4    mixing-type and parameters
     AMIX     =   0.40;   BMIX     =  1.00
     AMIX_MAG =   1.60;   BMIX_MAG =  1.00
     AMIN     =   0.10
     WC   =   100.;   INIMIX=   1;  MIXPRE=   1;  MAXMIX= -45

 Intra band minimization:
   WEIMIN = 0.0000     energy-eigenvalue tresh-hold
   EBREAK =  0.73E-07  absolut break condition
   DEPER  =   0.30     relativ break condition  

   TIME   =   0.40     timestep for ELM

  volume/ion in A,a.u.               =      35.65       240.56
  Fermi-wavevector in a.u.,A,eV,Ry     =   1.106272  2.090552 16.651337  1.223839
  Thomas-Fermi vector in A             =   2.242771
 
 Write flags
   LWAVE        =      F    write WAVECAR
   LDOWNSAMPLE  =      F    k-point downsampling of WAVECAR
   LCHARG       =      F    write CHGCAR
   LVTOT        =      F    write LOCPOT, total local potential
   LVHAR        =      F    write LOCPOT, Hartree potential only
   LELF         =      F    write electronic localiz. function (ELF)
   LORBIT       =      0    0 simple, 1 ext, 2 COOP (PROOUT), +10 PAW based schemes


 Dipole corrections
   LMONO  =      F    monopole corrections only (constant potential shift)
   LDIPOL =      F    correct potential (dipole corrections)
   IDIPOL =      0    1-x, 2-y, 3-z, 4-all directions 
   EPSILON=  1.0000000 bulk dielectric constant

 Exchange correlation treatment:
   GGA     =    --    GGA type
   LEXCH   =     8    internal setting for exchange type
   VOSKOWN=      0    Vosko Wilk Nusair interpolation
   LHFCALC =     F    Hartree Fock is set to
   LHFONE  =     F    Hartree Fock one center treatment
   AEXX    =    0.0000 exact exchange contribution

 Linear response parameters
   LEPSILON=     F    determine dielectric tensor
   LRPA    =     F    only Hartree local field effects (RPA)
   LNABLA  =     F    use nabla operator in PAW spheres
   LVEL    =     F    velocity operator in full k-point grid
   LINTERFAST=   F  fast interpolation
   KINTER  =     0    interpolate to denser k-point grid
   CSHIFT  =0.1000    complex shift for real part using Kramers Kronig
   OMEGAMAX=  -1.0    maximum frequency
   DEG_THRESHOLD= 0.2000000E-02 threshold for treating states as degnerate
   RTIME   =   -0.100 relaxation time in fs
  (WPLASMAI=    0.000 imaginary part of plasma frequency in eV, 0.658/RTIME)
   DFIELD  = 0.0000000 0.0000000 0.0000000 field for delta impulse in time
 
 Orbital magnetization related:
   ORBITALMAG=     F  switch on orbital magnetization
   LCHIMAG   =     F  perturbation theory with respect to B field
   DQ        =  0.001000  dq finite difference perturbation B field
   LLRAUG    =     F  two centre corrections for induced B field



--------------------------------------------------------------------------------------------------------


 Static calculation
 charge density and potential will be updated during run
 non-spin polarized calculation
 Variant of blocked Davidson
 Davidson routine will perform the subspace rotation
 perform sub-space diagonalisation
    after iterative eigenvector-optimisation
 modified Broyden-mixing scheme, WC =      100.0
 initial mixing is a Kerker type mixing with AMIX =  0.4000 and BMIX =      1.0000
 Hartree-type preconditioning will be used
 using additional bands           58
 real space projection scheme for non local part
 use partial core corrections
 calculate Harris-corrections to forces 
   (improved forces if not selfconsistent)
 use gradient corrections 
 use of overlap-Matrix (Vanderbilt PP)
 Gauss-broadening in eV      SIGMA  =   0.20


--------------------------------------------------------------------------------------------------------


  energy-cutoff  :      450.00
  volume of cell :     1853.68
      direct lattice vectors                 reciprocal lattice vectors
    11.256463038  0.000000000  0.000000000     0.088837852  0.000000000  0.000000000
     0.000000000  9.578410000  0.000000000     0.000000000  0.104401461  0.000000000
     0.000000000  0.000000000 17.192492405     0.000000000  0.000000000  0.058164923

  length of vectors
    11.256463038  9.578410000 17.192492405     0.088837852  0.104401461  0.058164923


 
 k-points in units of 2pi/SCALE and weight: gamma-point-only calculation. no periodi
   0.00000000  0.00000000  0.00000000       1.000
 
 k-points in reciprocal lattice and weights: gamma-point-only calculation. no periodi
   0.00000000  0.00000000  0.00000000       1.000
 
 position of ions in fractional coordinates (direct lattice) 
   0.43933499  0.46388800  0.16283377
   0.49150826  0.45149463  0.32429836
   0.23530624  0.82753360  0.10397175
   0.20675693  0.97441764  0.23693726
   0.43933499  0.19968200  0.16283377
   0.47417569  0.18811604  0.32241572
   0.15834252  0.57526006  0.11821378
   0.20307378  0.69445324  0.23755954
   0.15510077  0.33062346  0.16613286
   0.18249164  0.33178500  0.31854512
   0.46234050  0.86033015  0.09212497
   0.38185970  0.83190977  0.22233443
   0.52440689  0.95342335  0.29188880
   0.93933499  0.46388800  0.16283377
   0.97558412  0.48101910  0.31929116
   0.65567410  0.99754454  0.11017422
   0.71526096  0.96388800  0.25253989
   0.92098266  0.17711119  0.19278044
   0.99186679  0.20427063  0.33093462
   0.66108583  0.69106178  0.09958604
   0.71526096  0.69968200  0.25253989
   0.63063970  0.33178500  0.13913288
   0.68318146  0.33121127  0.29857535
   0.98928765  0.73039521  0.09666233
   0.90656566  0.83178500  0.22883899
   0.82771313  0.85577172  0.36275231
   0.11148904  0.16357000  0.23893853
   0.14557846  0.17337389  0.39762892
   0.33556306  0.66357000  0.14923241
   0.05600730  0.41388225  0.07571871
   0.11148904  0.50000000  0.23893853
   0.05347849  0.36288689  0.40493664
   0.33556306  1.00000000  0.14923241
   0.35227073  0.99925817  0.31233921
   0.31884453  0.33449331  0.10851536
   0.36788880  0.33178500  0.26911836
   0.13323746  0.71309359  0.02650062
   0.09196284  0.83178500  0.17941224
   0.56049174  0.17026461  0.07410181
   0.61148904  0.16357000  0.23893853
   0.57459608  0.31268005  0.39432882
   0.83556306  0.66357000  0.14923241
   0.87935360  0.67112135  0.31399484
   0.56936689  0.50622057  0.08042568
   0.61148904  0.50000000  0.23893853
   0.83556306  1.00000000  0.14923241
   0.89126731  0.02187742  0.29834638
   0.81671168  0.31433766  0.12170623
   0.86788880  0.33178500  0.26911836
   0.61254388  0.85038102  0.02526871
   0.59196284  0.83178500  0.17941224
   0.65152615  0.82840834  0.34428081
 
 position of ions in cartesian coordinates  (Angst):
   4.94535808  4.44330943  2.79951837
   5.53264451  4.32460063  5.57549709
   2.64871596  7.92645608  1.78753352
   2.32735174  9.33337165  4.07354204
   4.94535808  1.91263604  2.79951837
   5.33754110  1.80185252  5.54312975
   1.78237670  5.51007667  2.03238948
   2.28589246  6.65175789  4.08424064
   1.74588611  3.16684705  2.85623787
   2.05421037  3.17797273  5.47658447
   5.20431873  8.24059491  1.58385791
   4.29838957  7.96837284  3.82248300
   5.90296681  9.13227979  5.01829592
  10.57358960  4.44330943  2.79951837
  10.98162653  4.60739814  5.48941091
   7.38057128  9.55489064  1.89416944
   8.05130860  9.23251443  4.34179014
  10.36700729  1.69644357  3.31437623
  11.16491183  1.95658783  5.68959100
   7.44148826  6.61927306  1.71213217
   8.05130860  6.70184104  4.34179014
   7.09877251  3.17797273  2.39204091
   7.69020685  3.17247731  5.13325448
  11.13587984  6.99602478  1.66186629
  10.20472287  7.96717773  3.93431268
   9.31712225  8.19693239  6.23661629
   1.25497224  1.56674049  4.10794885
   1.63869850  1.66064616  6.83623221
   3.77725322  6.35594549  2.56567706
   0.63044408  3.96433388  1.30179329
   1.25497224  4.78920497  4.10794885
   0.60197860  3.47587943  6.96187002
   3.77725322  9.57840997  2.56567706
   3.96532241  9.57130449  5.36988944
   3.58906162  3.20391404  1.86564942
   4.14112671  3.17797273  4.62681534
   1.49978253  6.83030273  0.45561174
   1.03517635  7.96717773  3.08454356
   6.30915459  1.63086427  1.27399487
   6.88320375  1.56674049  4.10794885
   6.46791954  2.99497767  6.77949530
   9.40548473  6.35594549  2.56567706
   9.89841125  6.42827540  5.39835387
   6.40905731  4.84878817  1.38271797
   6.88320375  4.78920497  4.10794885
   9.40548473  9.57840997  2.56567706
  10.03251750  0.20955089  5.12931781
   9.19328478  3.01085502  2.09243342
   9.76935823  3.17797273  4.62681534
   6.89507752  8.14529803  0.43443208
   6.66340787  7.96717773  3.08454356
   7.33388008  7.93483476  5.91904519
 


--------------------------------------------------------------------------------------------------------


 use parallel FFT for orbitals z direction half grid
 k-point  1 :   0.0000 0.0000 0.0000  plane waves:   20117

 maximum and minimum number of plane-waves per node :      3359     3348

 maximum number of plane-waves:     20117
 maximum index in each direction: 
   IXMAX=   19   IYMAX=   16   IZMAX=   29
   IXMIN=  -19   IYMIN=  -16   IZMIN=    0


 real space projection operators:
  total allocation   :       7325.20 KBytes
  max/ min on nodes  :       1225.31       1217.98


 parallel 3D FFT for wavefunctions:
    minimum data exchange during FFTs selected (reduces bandwidth)
 parallel 3D FFT for charge:
    minimum data exchange during FFTs selected (reduces bandwidth)


 total amount of memory used by VASP MPI-rank0    60040. kBytes
=======================================================================

   base      :      30000. kBytes
   nonlr-proj:       1505. kBytes
   fftplans  :       7078. kBytes
   grid      :      11974. kBytes
   one-center:         69. kBytes
   wavefun   :       9414. kBytes
 
     INWAV:  cpu time    0.0000: real time    0.0000
 Broyden mixing: mesh for mixing (old mesh)
   NGX = 39   NGY = 33   NGZ = 59
  (NGX  =120   NGY  =100   NGZ  =180)
  gives a total of  75933 points

 initial charge density was supplied:
 charge density of overlapping atoms calculated
 number of electron     572.0000000 magnetization 
 keeping initial charge density in first step


--------------------------------------------------------------------------------------------------------


 Maximum index for non-local projection operator          267
 Maximum index for augmentation-charges          432 (set IRDMAX)


--------------------------------------------------------------------------------------------------------


 First call to EWALD:  gamma=   0.144
 Maximum number of real-space cells 3x 3x 2
 Maximum number of reciprocal cells 3x 2x 4

    FEWALD:  cpu time    0.0038: real time    0.0038


--------------------------------------- Iteration      1(   1)  ---------------------------------------


    POTLOK:  cpu time    0.2134: real time    0.2134
    SETDIJ:  cpu time    0.0140: real time    0.0140
     EDDAV:  cpu time    3.7775: real time    3.7786
       DOS:  cpu time    0.0010: real time    0.0010
    --------------------------------------------
      LOOP:  cpu time    4.0059: real time    4.0069

 eigenvalue-minimisations  :   848
 total energy-change (2. order) : 0.6486438E+04  (-0.3664600E+05)
 number of electron     572.0000000 magnetization 
 augmentation part      572.0000000 magnetization 

 Free energy of the ion-electron system (eV)
  ---------------------------------------------------
  alpha Z        PSCENC =      1046.73971423
  Ewald energy   TEWEN  =    126714.78959055
  -Hartree energ DENC   =   -213640.36519983
  -exchange      EXHF   =         0.00000000
  -V(xc)+E(xc)   XCENC  =      2661.54741528
  PAW double counting   =     81415.77407466   -84963.31414086
  entropy T*S    EENTRO =        -0.29730776
  eigenvalues    EBANDS =     -4972.53954346
  atomic energy  EATOM  =     98224.10364994
  Solvation  Ediel_sol  =         0.00000000
  ---------------------------------------------------
  free energy    TOTEN  =      6486.43825275 eV

  energy without entropy =     6486.73556051  energy(sigma->0) =     6486.58690663


--------------------------------------------------------------------------------------------------------




--------------------------------------- Iteration      1(   2)  ---------------------------------------


     EDDAV:  cpu time    3.5950: real time    3.5964
       DOS:  cpu time    0.0009: real time    0.0009
    --------------------------------------------
      LOOP:  cpu time    3.5959: real time    3.5973

 eigenvalue-minimisations  :   736
 total energy-change (2. order) :-0.6138095E+04  (-0.5922051E+04)
 number of electron     572.0000000 magnetization 
 augmentation part      572.0000000 magnetization 

 Free energy of the ion-electron system (eV)
  ---------------------------------------------------
  alpha Z        PSCENC =      1046.73971423
  Ewald energy   TEWEN  =    126714.78959055
  -Hartree energ DENC   =   -213640.36519983
  -exchange      EXHF   =         0.00000000
  -V(xc)+E(xc)   XCENC  =      2661.54741528
  PAW double counting   =     81415.77407466   -84963.31414086
  entropy T*S    EENTRO =        -0.53804768
  eigenvalues    EBANDS =    -11110.39367751
  atomic energy  EATOM  =     98224.10364994
  Solvation  Ediel_sol  =         0.00000000
  ---------------------------------------------------
  free energy    TOTEN  =       348.34337878 eV

  energy without entropy =      348.88142646  energy(sigma->0) =      348.61240262


--------------------------------------------------------------------------------------------------------




--------------------------------------- Iteration      1(   3)  ---------------------------------------


     EDDAV:  cpu time    3.8624: real time    3.8634
       DOS:  cpu time    0.0009: real time    0.0009
    --------------------------------------------
      LOOP:  cpu time    3.8632: real time    3.8642

 eigenvalue-minimisations  :   816
 total energy-change (2. order) :-0.6006576E+03  (-0.5805835E+03)
 number of electron     572.0000000 magnetization 
 augmentation part      572.0000000 magnetization 

 Free energy of the ion-electron system (eV)
  ---------------------------------------------------
  alpha Z        PSCENC =      1046.73971423
  Ewald energy   TEWEN  =    126714.78959055
  -Hartree energ DENC   =   -213640.36519983
  -exchange      EXHF   =         0.00000000
  -V(xc)+E(xc)   XCENC  =      2661.54741528
  PAW double counting   =     81415.77407466   -84963.31414086
  entropy T*S    EENTRO =        -0.91828405
  eigenvalues    EBANDS =    -11710.67103253
  atomic energy  EATOM  =     98224.10364994
  Solvation  Ediel_sol  =         0.00000000
  ---------------------------------------------------
  free energy    TOTEN  =      -252.31421261 eV

  energy without entropy =     -251.39592856  energy(sigma->0) =     -251.85507058


--------------------------------------------------------------------------------------------------------




--------------------------------------- Iteration      1(   4)  ---------------------------------------


     EDDAV:  cpu time    3.7429: real time    3.7448
       DOS:  cpu time    0.0009: real time    0.0009
    --------------------------------------------
      LOOP:  cpu time    3.7438: real time    3.7457

 eigenvalue-minimisations  :   800
 total energy-change (2. order) :-0.2853564E+02  (-0.2824382E+02)
 number of electron     572.0000000 magnetization 
 augmentation part      572.0000000 magnetization 

 Free energy of the ion-electron system (eV)
  ---------------------------------------------------
  alpha Z        PSCENC =      1046.73971423
  Ewald energy   TEWEN  =    126714.78959055
  -Hartree energ DENC   =   -213640.36519983
  -exchange      EXHF   =         0.00000000
  -V(xc)+E(xc)   XCENC  =      2661.54741528
  PAW double counting   =     81415.77407466   -84963.31414086
  entropy T*S    EENTRO =        -0.92666107
  eigenvalues    EBANDS =    -11739.19829333
  atomic energy  EATOM  =     98224.10364994
  Solvation  Ediel_sol  =         0.00000000
  ---------------------------------------------------
  free energy    TOTEN  =      -280.84985043 eV

  energy without entropy =     -279.92318936  energy(sigma->0) =     -280.38651989


--------------------------------------------------------------------------------------------------------




--------------------------------------- Iteration      1(   5)  ---------------------------------------


     EDDAV:  cpu time    3.8057: real time    3.8090
       DOS:  cpu time    0.0010: real time    0.0009
    CHARGE:  cpu time    0.1391: real time    0.1391
    MIXING:  cpu time    0.0067: real time    0.0068
    --------------------------------------------
      LOOP:  cpu time    3.9526: real time    3.9560

 eigenvalue-minimisations  :   848
 total energy-change (2. order) :-0.1088575E+01  (-0.1086697E+01)
 number of electron     572.0000284 magnetization 
 augmentation part      207.4825475 magnetization 

 Broyden mixing:
  rms(total) = 0.86023E+01    rms(broyden)= 0.85965E+01
  rms(prec ) = 0.89887E+01
  weight for this iteration     100.00

 Free energy of the ion-electron system (eV)
  ---------------------------------------------------
  alpha Z        PSCENC =      1046.73971423
  Ewald energy   TEWEN  =    126714.78959055
  -Hartree energ DENC   =   -213640.36519983
  -exchange      EXHF   =         0.00000000
  -V(xc)+E(xc)   XCENC  =      2661.54741528
  PAW double counting   =     81415.77407466   -84963.31414086
  entropy T*S    EENTRO =        -0.92668029
  eigenvalues    EBANDS =    -11740.28684876
  atomic energy  EATOM  =     98224.10364994
  Solvation  Ediel_sol  =         0.00000000
  ---------------------------------------------------
  free energy    TOTEN  =      -281.93842508 eV

  energy without entropy =     -281.01174479  energy(sigma->0) =     -281.47508494


--------------------------------------------------------------------------------------------------------




--------------------------------------- Iteration      1(   6)  ---------------------------------------


    POTLOK:  cpu time    0.2001: real time    0.2001
    SETDIJ:  cpu time    0.0154: real time    0.0154
     EDDAV:  cpu time    4.1128: real time    4.1135
       DOS:  cpu time    0.0011: real time    0.0011
    CHARGE:  cpu time    0.1333: real time    0.1333
    MIXING:  cpu time    0.0080: real time    0.0080
    --------------------------------------------
      LOOP:  cpu time    4.4708: real time    4.4715

 eigenvalue-minimisations  :   888
 total energy-change (2. order) :-0.4226470E+02  (-0.6719232E+02)
 number of electron     572.0000319 magnetization 
 augmentation part      247.9914076 magnetization 

 Broyden mixing:
  rms(total) = 0.13269E+02    rms(broyden)= 0.13267E+02
  rms(prec ) = 0.13834E+02
  weight for this iteration     100.00

 eigenvalues of (default mixing * dielectric matrix)
  average eigenvalue GAMMA=   0.2488
  0.2488

 Free energy of the ion-electron system (eV)
  ---------------------------------------------------
  alpha Z        PSCENC =      1046.73971423
  Ewald energy   TEWEN  =    126714.78959055
  -Hartree energ DENC   =   -211807.80926520
  -exchange      EXHF   =         0.00000000
  -V(xc)+E(xc)   XCENC  =      2610.20212826
  PAW double counting   =     85647.22854863   -89034.73249624
  entropy T*S    EENTRO =        -0.51572889
  eigenvalues    EBANDS =    -13724.20926529
  atomic energy  EATOM  =     98224.10364994
  Solvation  Ediel_sol  =         0.00000000
  ---------------------------------------------------
  free energy    TOTEN  =      -324.20312402 eV

  energy without entropy =     -323.68739513  energy(sigma->0) =     -323.94525958


--------------------------------------------------------------------------------------------------------




--------------------------------------- Iteration      1(   7)  ---------------------------------------


    POTLOK:  cpu time    0.1974: real time    0.1974
    SETDIJ:  cpu time    0.0153: real time    0.0153
     EDDAV:  cpu time    3.6977: real time    3.6984
       DOS:  cpu time    0.0010: real time    0.0010
    CHARGE:  cpu time    0.1367: real time    0.1367
    MIXING:  cpu time    0.0074: real time    0.0074
    --------------------------------------------
      LOOP:  cpu time    4.0555: real time    4.0563

 eigenvalue-minimisations  :   768
 total energy-change (2. order) : 0.6462967E+02  (-0.1554517E+02)
 number of electron     572.0000327 magnetization 
 augmentation part      238.1982433 magnetization 

 Broyden mixing:
  rms(total) = 0.57434E+01    rms(broyden)= 0.57423E+01
  rms(prec ) = 0.60262E+01
  weight for this iteration     100.00

 eigenvalues of (default mixing * dielectric matrix)
  average eigenvalue GAMMA=   0.5422
  0.6121  0.4722

 Free energy of the ion-electron system (eV)
  ---------------------------------------------------
  alpha Z        PSCENC =      1046.73971423
  Ewald energy   TEWEN  =    126714.78959055
  -Hartree energ DENC   =   -212530.14925135
  -exchange      EXHF   =         0.00000000
  -V(xc)+E(xc)   XCENC  =      2628.34913040
  PAW double counting   =     89036.24064922   -92523.52218265
  entropy T*S    EENTRO =        -0.65730874
  eigenvalues    EBANDS =    -12855.46744204
  atomic energy  EATOM  =     98224.10364994
  Solvation  Ediel_sol  =         0.00000000
  ---------------------------------------------------
  free energy    TOTEN  =      -259.57345045 eV

  energy without entropy =     -258.91614170  energy(sigma->0) =     -259.24479608


--------------------------------------------------------------------------------------------------------




--------------------------------------- Iteration      1(   8)  ---------------------------------------


    POTLOK:  cpu time    0.1998: real time    0.2000
    SETDIJ:  cpu time    0.0155: real time    0.0155
     EDDAV:  cpu time    4.1344: real time    4.1354
       DOS:  cpu time    0.0011: real time    0.0010
    CHARGE:  cpu time    0.1316: real time    0.1316
    MIXING:  cpu time    0.0082: real time    0.0082
    --------------------------------------------
      LOOP:  cpu time    4.4906: real time    4.4917

 eigenvalue-minimisations  :   896
 total energy-change (2. order) :-0.4572035E+02  (-0.1859483E+02)
 number of electron     572.0000290 magnetization 
 augmentation part      219.6892557 magnetization 

 Broyden mixing:
  rms(total) = 0.10363E+02    rms(broyden)= 0.10362E+02
  rms(prec ) = 0.12225E+02
  weight for this iteration     100.00

 eigenvalues of (default mixing * dielectric matrix)
  average eigenvalue GAMMA=   0.5215
  0.9380  0.4234  0.2030

 Free energy of the ion-electron system (eV)
  ---------------------------------------------------
  alpha Z        PSCENC =      1046.73971423
  Ewald energy   TEWEN  =    126714.78959055
  -Hartree energ DENC   =   -213296.61060804
  -exchange      EXHF   =         0.00000000
  -V(xc)+E(xc)   XCENC  =      2647.56087317
  PAW double counting   =     95008.66114175   -98600.80331911
  entropy T*S    EENTRO =        -0.70168780
  eigenvalues    EBANDS =    -12049.03315833
  atomic energy  EATOM  =     98224.10364994
  Solvation  Ediel_sol  =         0.00000000
  ---------------------------------------------------
  free energy    TOTEN  =      -305.29380364 eV

  energy without entropy =     -304.59211585  energy(sigma->0) =     -304.94295975


--------------------------------------------------------------------------------------------------------




--------------------------------------- Iteration      1(   9)  ---------------------------------------


    POTLOK:  cpu time    0.1974: real time    0.1974
    SETDIJ:  cpu time    0.0153: real time    0.0153
     EDDAV:  cpu time    4.0771: real time    4.0779
       DOS:  cpu time    0.0010: real time    0.0010
    CHARGE:  cpu time    0.1368: real time    0.1368
    MIXING:  cpu time    0.0103: real time    0.0103
    --------------------------------------------
      LOOP:  cpu time    4.4379: real time    4.4387

 eigenvalue-minimisations  :   944
 total energy-change (2. order) : 0.4095358E+02  (-0.8101057E+01)
 number of electron     572.0000308 magnetization 
 augmentation part      219.4338640 magnetization 

 Broyden mixing:
  rms(total) = 0.50618E+01    rms(broyden)= 0.50590E+01
  rms(prec ) = 0.56304E+01
  weight for this iteration     100.00

 eigenvalues of (default mixing * dielectric matrix)
  average eigenvalue GAMMA=   0.6600
  1.6779  0.4066  0.4066  0.1487

 Free energy of the ion-electron system (eV)
  ---------------------------------------------------
  alpha Z        PSCENC =      1046.73971423
  Ewald energy   TEWEN  =    126714.78959055
  -Hartree energ DENC   =   -213257.08080848
  -exchange      EXHF   =         0.00000000
  -V(xc)+E(xc)   XCENC  =      2646.44796792
  PAW double counting   =     97597.44921421  -101200.22270782
  entropy T*S    EENTRO =        -0.73039510
  eigenvalues    EBANDS =    -12035.83644671
  atomic energy  EATOM  =     98224.10364994
  Solvation  Ediel_sol  =         0.00000000
  ---------------------------------------------------
  free energy    TOTEN  =      -264.34022127 eV

  energy without entropy =     -263.60982617  energy(sigma->0) =     -263.97502372


--------------------------------------------------------------------------------------------------------




--------------------------------------- Iteration      1(  10)  ---------------------------------------


    POTLOK:  cpu time    0.2985: real time    0.2988
    SETDIJ:  cpu time    0.0243: real time    0.0243
     EDDAV:  cpu time    4.1005: real time    4.1012
       DOS:  cpu time    0.0009: real time    0.0009
    CHARGE:  cpu time    0.1336: real time    0.1337
    MIXING:  cpu time    0.0112: real time    0.0112
    --------------------------------------------
      LOOP:  cpu time    4.5691: real time    4.5700

 eigenvalue-minimisations  :   936
 total energy-change (2. order) :-0.1004292E+02  (-0.6937924E+01)
 number of electron     572.0000243 magnetization 
 augmentation part      219.3347238 magnetization 

 Broyden mixing:
  rms(total) = 0.67889E+01    rms(broyden)= 0.67856E+01
  rms(prec ) = 0.78640E+01
  weight for this iteration     100.00

 eigenvalues of (default mixing * dielectric matrix)
  average eigenvalue GAMMA=   0.6520
  2.0879  0.4215  0.4215  0.1645  0.1645

 Free energy of the ion-electron system (eV)
  ---------------------------------------------------
  alpha Z        PSCENC =      1046.73971423
  Ewald energy   TEWEN  =    126714.78959055
  -Hartree energ DENC   =   -213168.94650029
  -exchange      EXHF   =         0.00000000
  -V(xc)+E(xc)   XCENC  =      2643.72197666
  PAW double counting   =    101903.31116200  -105524.01800475
  entropy T*S    EENTRO =        -0.59339284
  eigenvalues    EBANDS =    -12113.49133712
  atomic energy  EATOM  =     98224.10364994
  Solvation  Ediel_sol  =         0.00000000
  ---------------------------------------------------
  free energy    TOTEN  =      -274.38314163 eV

  energy without entropy =     -273.78974878  energy(sigma->0) =     -274.08644521


--------------------------------------------------------------------------------------------------------




--------------------------------------- Iteration      1(  11)  ---------------------------------------


    POTLOK:  cpu time    0.2004: real time    0.2008
    SETDIJ:  cpu time    0.0157: real time    0.0157
     EDDAV:  cpu time    4.3735: real time    4.3750
       DOS:  cpu time    0.0010: real time    0.0010
    CHARGE:  cpu time    0.1345: real time    0.1345
    MIXING:  cpu time    0.0088: real time    0.0088
    --------------------------------------------
      LOOP:  cpu time    4.7340: real time    4.7358

 eigenvalue-minimisations  :   960
 total energy-change (2. order) : 0.1363615E+02  (-0.5000692E+01)
 number of electron     572.0000359 magnetization 
 augmentation part      223.4873706 magnetization 

 Broyden mixing:
  rms(total) = 0.40051E+01    rms(broyden)= 0.40007E+01
  rms(prec ) = 0.47565E+01
  weight for this iteration     100.00

 eigenvalues of (default mixing * dielectric matrix)
  average eigenvalue GAMMA=   0.6424
  2.3323  0.4511  0.4511  0.3139  0.1764  0.1293

 Free energy of the ion-electron system (eV)
  ---------------------------------------------------
  alpha Z        PSCENC =      1046.73971423
  Ewald energy   TEWEN  =    126714.78959055
  -Hartree energ DENC   =   -213068.16810619
  -exchange      EXHF   =         0.00000000
  -V(xc)+E(xc)   XCENC  =      2641.49068900
  PAW double counting   =    104198.03611718  -107825.64395995
  entropy T*S    EENTRO =        -0.52212055
  eigenvalues    EBANDS =    -12191.57256888
  atomic energy  EATOM  =     98224.10364994
  Solvation  Ediel_sol  =         0.00000000
  ---------------------------------------------------
  free energy    TOTEN  =      -260.74699466 eV

  energy without entropy =     -260.22487412  energy(sigma->0) =     -260.48593439


--------------------------------------------------------------------------------------------------------




--------------------------------------- Iteration      1(  12)  ---------------------------------------


    POTLOK:  cpu time    0.1990: real time    0.1993
    SETDIJ:  cpu time    0.0158: real time    0.0158
     EDDAV:  cpu time    4.2686: real time    4.2930
       DOS:  cpu time    0.0010: real time    0.0010
    CHARGE:  cpu time    0.1397: real time    0.1397
    MIXING:  cpu time    0.0090: real time    0.0090
    --------------------------------------------
      LOOP:  cpu time    4.6332: real time    4.6579

 eigenvalue-minimisations  :   936
 total energy-change (2. order) : 0.2858611E+01  (-0.2966292E+01)
 number of electron     572.0000279 magnetization 
 augmentation part      224.2273212 magnetization 

 Broyden mixing:
  rms(total) = 0.46955E+01    rms(broyden)= 0.46937E+01
  rms(prec ) = 0.56223E+01
  weight for this iteration     100.00

 eigenvalues of (default mixing * dielectric matrix)
  average eigenvalue GAMMA=   0.6073
  2.4297  0.4640  0.4640  0.4517  0.1769  0.1324  0.1324

 Free energy of the ion-electron system (eV)
  ---------------------------------------------------
  alpha Z        PSCENC =      1046.73971423
  Ewald energy   TEWEN  =    126714.78959055
  -Hartree energ DENC   =   -213043.67382117
  -exchange      EXHF   =         0.00000000
  -V(xc)+E(xc)   XCENC  =      2640.72695984
  PAW double counting   =    105277.68924022  -108910.21094431
  entropy T*S    EENTRO =        -0.76660053
  eigenvalues    EBANDS =    -12207.28617287
  atomic energy  EATOM  =     98224.10364994
  Solvation  Ediel_sol  =         0.00000000
  ---------------------------------------------------
  free energy    TOTEN  =      -257.88838410 eV

  energy without entropy =     -257.12178356  energy(sigma->0) =     -257.50508383


--------------------------------------------------------------------------------------------------------




--------------------------------------- Iteration      1(  13)  ---------------------------------------


    POTLOK:  cpu time    0.1995: real time    0.1995
    SETDIJ:  cpu time    0.0157: real time    0.0157
     EDDAV:  cpu time    4.2534: real time    4.2541
       DOS:  cpu time    0.0011: real time    0.0010
    CHARGE:  cpu time    0.1468: real time    0.1468
    MIXING:  cpu time    0.0121: real time    0.0122
    --------------------------------------------
      LOOP:  cpu time    4.6285: real time    4.6293

 eigenvalue-minimisations  :   928
 total energy-change (2. order) : 0.5099753E+01  (-0.3294555E+01)
 number of electron     572.0000313 magnetization 
 augmentation part      226.2648953 magnetization 

 Broyden mixing:
  rms(total) = 0.24692E+01    rms(broyden)= 0.24681E+01
  rms(prec ) = 0.28587E+01
  weight for this iteration     100.00

 eigenvalues of (default mixing * dielectric matrix)
  average eigenvalue GAMMA=   0.5549
  2.3776  0.4594  0.4594  0.3986  0.3409  0.1392  0.1319  0.1319

 Free energy of the ion-electron system (eV)
  ---------------------------------------------------
  alpha Z        PSCENC =      1046.73971423
  Ewald energy   TEWEN  =    126714.78959055
  -Hartree energ DENC   =   -213014.44836173
  -exchange      EXHF   =         0.00000000
  -V(xc)+E(xc)   XCENC  =      2639.64643296
  PAW double counting   =    105539.83232891  -109170.07823809
  entropy T*S    EENTRO =        -0.68998215
  eigenvalues    EBANDS =    -12232.68376591
  atomic energy  EATOM  =     98224.10364994
  Solvation  Ediel_sol  =         0.00000000
  ---------------------------------------------------
  free energy    TOTEN  =      -252.78863129 eV

  energy without entropy =     -252.09864914  energy(sigma->0) =     -252.44364021


--------------------------------------------------------------------------------------------------------




--------------------------------------- Iteration      1(  14)  ---------------------------------------


    POTLOK:  cpu time    0.1997: real time    0.1997
    SETDIJ:  cpu time    0.0160: real time    0.0160
     EDDAV:  cpu time    4.4197: real time    4.4207
       DOS:  cpu time    0.0010: real time    0.0010
    CHARGE:  cpu time    0.1346: real time    0.1346
    MIXING:  cpu time    0.0101: real time    0.0101
    --------------------------------------------
      LOOP:  cpu time    4.7810: real time    4.7821

 eigenvalue-minimisations  :   952
 total energy-change (2. order) : 0.2546796E+01  (-0.6280892E+00)
 number of electron     572.0000320 magnetization 
 augmentation part      226.3382400 magnetization 

 Broyden mixing:
  rms(total) = 0.17760E+01    rms(broyden)= 0.17750E+01
  rms(prec ) = 0.20632E+01
  weight for this iteration     100.00

 eigenvalues of (default mixing * dielectric matrix)
  average eigenvalue GAMMA=   0.5369
  2.2270  0.5473  0.5473  0.4560  0.4560  0.1633  0.1633  0.1359  0.1359

 Free energy of the ion-electron system (eV)
  ---------------------------------------------------
  alpha Z        PSCENC =      1046.73971423
  Ewald energy   TEWEN  =    126714.78959055
  -Hartree energ DENC   =   -213035.31810117
  -exchange      EXHF   =         0.00000000
  -V(xc)+E(xc)   XCENC  =      2639.88596667
  PAW double counting   =    105242.66410237  -108871.57328952
  entropy T*S    EENTRO =        -0.73556804
  eigenvalues    EBANDS =    -12210.79789992
  atomic energy  EATOM  =     98224.10364994
  Solvation  Ediel_sol  =         0.00000000
  ---------------------------------------------------
  free energy    TOTEN  =      -250.24183490 eV

  energy without entropy =     -249.50626686  energy(sigma->0) =     -249.87405088


--------------------------------------------------------------------------------------------------------




--------------------------------------- Iteration      1(  15)  ---------------------------------------


    POTLOK:  cpu time    0.1999: real time    0.1999
    SETDIJ:  cpu time    0.0158: real time    0.0158
     EDDAV:  cpu time    4.3261: real time    4.3585
       DOS:  cpu time    0.0009: real time    0.0009
    CHARGE:  cpu time    0.1406: real time    0.1406
    MIXING:  cpu time    0.0105: real time    0.0105
    --------------------------------------------
      LOOP:  cpu time    4.6939: real time    4.7262

 eigenvalue-minimisations  :   944
 total energy-change (2. order) : 0.1039222E+01  (-0.2483970E+00)
 number of electron     572.0000312 magnetization 
 augmentation part      225.6321080 magnetization 

 Broyden mixing:
  rms(total) = 0.14864E+01    rms(broyden)= 0.14860E+01
  rms(prec ) = 0.17440E+01
  weight for this iteration     100.00

 eigenvalues of (default mixing * dielectric matrix)
  average eigenvalue GAMMA=   0.5037
  2.1870  0.5766  0.5766  0.4285  0.4285  0.2178  0.2178  0.1340  0.1340  0.1362

 Free energy of the ion-electron system (eV)
  ---------------------------------------------------
  alpha Z        PSCENC =      1046.73971423
  Ewald energy   TEWEN  =    126714.78959055
  -Hartree energ DENC   =   -213074.08939788
  -exchange      EXHF   =         0.00000000
  -V(xc)+E(xc)   XCENC  =      2640.63134390
  PAW double counting   =    104625.61111650  -108252.04977188
  entropy T*S    EENTRO =        -0.74810670
  eigenvalues    EBANDS =    -12174.19075200
  atomic energy  EATOM  =     98224.10364994
  Solvation  Ediel_sol  =         0.00000000
  ---------------------------------------------------
  free energy    TOTEN  =      -249.20261335 eV

  energy without entropy =     -248.45450665  energy(sigma->0) =     -248.82856000


--------------------------------------------------------------------------------------------------------




--------------------------------------- Iteration      1(  16)  ---------------------------------------


    POTLOK:  cpu time    0.2001: real time    0.2001
    SETDIJ:  cpu time    0.0155: real time    0.0155
     EDDAV:  cpu time    4.0909: real time    4.0923
       DOS:  cpu time    0.0009: real time    0.0009
    CHARGE:  cpu time    0.1329: real time    0.1329
    MIXING:  cpu time    0.0104: real time    0.0104
    --------------------------------------------
      LOOP:  cpu time    4.4507: real time    4.4521

 eigenvalue-minimisations  :   944
 total energy-change (2. order) : 0.4990903E+00  (-0.1126394E+00)
 number of electron     572.0000306 magnetization 
 augmentation part      225.5049974 magnetization 

 Broyden mixing:
  rms(total) = 0.12679E+01    rms(broyden)= 0.12676E+01
  rms(prec ) = 0.14764E+01
  weight for this iteration     100.00

 eigenvalues of (default mixing * dielectric matrix)
  average eigenvalue GAMMA=   0.5172
  2.1801  0.7114  0.7114  0.4572  0.4572  0.4185  0.2000  0.1368  0.1368  0.1397
  0.1397

 Free energy of the ion-electron system (eV)
  ---------------------------------------------------
  alpha Z        PSCENC =      1046.73971423
  Ewald energy   TEWEN  =    126714.78959055
  -Hartree energ DENC   =   -213082.59148742
  -exchange      EXHF   =         0.00000000
  -V(xc)+E(xc)   XCENC  =      2640.74074386
  PAW double counting   =    104423.72813372  -108048.65333716
  entropy T*S    EENTRO =        -0.78426588
  eigenvalues    EBANDS =    -12166.77626492
  atomic energy  EATOM  =     98224.10364994
  Solvation  Ediel_sol  =         0.00000000
  ---------------------------------------------------
  free energy    TOTEN  =      -248.70352309 eV

  energy without entropy =     -247.91925720  energy(sigma->0) =     -248.31139014


--------------------------------------------------------------------------------------------------------




--------------------------------------- Iteration      1(  17)  ---------------------------------------


    POTLOK:  cpu time    0.2010: real time    0.2013
    SETDIJ:  cpu time    0.0208: real time    0.0208
     EDDAV:  cpu time    4.3025: real time    4.3037
       DOS:  cpu time    0.0009: real time    0.0009
    CHARGE:  cpu time    0.1331: real time    0.1331
    MIXING:  cpu time    0.0105: real time    0.0105
    --------------------------------------------
      LOOP:  cpu time    4.6688: real time    4.6704

 eigenvalue-minimisations  :   944
 total energy-change (2. order) : 0.3841702E+00  (-0.3560023E-01)
 number of electron     572.0000307 magnetization 
 augmentation part      225.3996954 magnetization 

 Broyden mixing:
  rms(total) = 0.11127E+01    rms(broyden)= 0.11126E+01
  rms(prec ) = 0.12954E+01
  weight for this iteration     100.00

 eigenvalues of (default mixing * dielectric matrix)
  average eigenvalue GAMMA=   0.5278
  2.1773  0.9044  0.9044  0.4652  0.4652  0.4178  0.2462  0.1732  0.1732  0.1353
  0.1353  0.1365

 Free energy of the ion-electron system (eV)
  ---------------------------------------------------
  alpha Z        PSCENC =      1046.73971423
  Ewald energy   TEWEN  =    126714.78959055
  -Hartree energ DENC   =   -213092.26295240
  -exchange      EXHF   =         0.00000000
  -V(xc)+E(xc)   XCENC  =      2640.85185691
  PAW double counting   =    104250.27644561  -107873.63724367
  entropy T*S    EENTRO =        -0.77124911
  eigenvalues    EBANDS =    -12158.40916495
  atomic energy  EATOM  =     98224.10364994
  Solvation  Ediel_sol  =         0.00000000
  ---------------------------------------------------
  free energy    TOTEN  =      -248.31935288 eV

  energy without entropy =     -247.54810377  energy(sigma->0) =     -247.93372833


--------------------------------------------------------------------------------------------------------




--------------------------------------- Iteration      1(  18)  ---------------------------------------


    POTLOK:  cpu time    0.2007: real time    0.2007
    SETDIJ:  cpu time    0.0156: real time    0.0156
     EDDAV:  cpu time    4.3107: real time    4.3603
       DOS:  cpu time    0.0011: real time    0.0011
    CHARGE:  cpu time    0.1502: real time    0.1503
    MIXING:  cpu time    0.0114: real time    0.0114
    --------------------------------------------
      LOOP:  cpu time    4.6897: real time    4.7394

 eigenvalue-minimisations  :   944
 total energy-change (2. order) : 0.2917035E+00  (-0.3932930E-01)
 number of electron     572.0000309 magnetization 
 augmentation part      225.4111820 magnetization 

 Broyden mixing:
  rms(total) = 0.10123E+01    rms(broyden)= 0.10122E+01
  rms(prec ) = 0.11876E+01
  weight for this iteration     100.00

 eigenvalues of (default mixing * dielectric matrix)
  average eigenvalue GAMMA=   0.5450
  2.1904  1.0910  1.0910  0.4858  0.4858  0.4215  0.4215  0.1809  0.1809  0.1363
  0.1363  0.1359  0.1280

 Free energy of the ion-electron system (eV)
  ---------------------------------------------------
  alpha Z        PSCENC =      1046.73971423
  Ewald energy   TEWEN  =    126714.78959055
  -Hartree energ DENC   =   -213099.02744238
  -exchange      EXHF   =         0.00000000
  -V(xc)+E(xc)   XCENC  =      2640.86158141
  PAW double counting   =    104058.48248566  -107679.59921554
  entropy T*S    EENTRO =        -0.78501916
  eigenvalues    EBANDS =    -12153.59299406
  atomic energy  EATOM  =     98224.10364994
  Solvation  Ediel_sol  =         0.00000000
  ---------------------------------------------------
  free energy    TOTEN  =      -248.02764935 eV

  energy without entropy =     -247.24263019  energy(sigma->0) =     -247.63513977


--------------------------------------------------------------------------------------------------------




--------------------------------------- Iteration      1(  19)  ---------------------------------------


    POTLOK:  cpu time    0.2028: real time    0.2028
    SETDIJ:  cpu time    0.0155: real time    0.0155
     EDDAV:  cpu time    4.3161: real time    4.3169
       DOS:  cpu time    0.0009: real time    0.0009
    CHARGE:  cpu time    0.1337: real time    0.1337
    MIXING:  cpu time    0.0112: real time    0.0112
    --------------------------------------------
      LOOP:  cpu time    4.6802: real time    4.6810

 eigenvalue-minimisations  :   944
 total energy-change (2. order) : 0.2385264E+00  (-0.1812408E-01)
 number of electron     572.0000307 magnetization 
 augmentation part      225.3823137 magnetization 

 Broyden mixing:
  rms(total) = 0.88386E+00    rms(broyden)= 0.88383E+00
  rms(prec ) = 0.10335E+01
  weight for this iteration     100.00

 eigenvalues of (default mixing * dielectric matrix)
  average eigenvalue GAMMA=   0.5730
  2.1918  1.3716  1.3716  0.5175  0.5175  0.4553  0.4553  0.2115  0.2115  0.1352
  0.1352  0.1561  0.1561  0.1355

 Free energy of the ion-electron system (eV)
  ---------------------------------------------------
  alpha Z        PSCENC =      1046.73971423
  Ewald energy   TEWEN  =    126714.78959055
  -Hartree energ DENC   =   -213109.64926365
  -exchange      EXHF   =         0.00000000
  -V(xc)+E(xc)   XCENC  =      2640.90591703
  PAW double counting   =    103891.93661879  -107511.07392707
  entropy T*S    EENTRO =        -0.78261331
  eigenvalues    EBANDS =    -12144.75880944
  atomic energy  EATOM  =     98224.10364994
  Solvation  Ediel_sol  =         0.00000000
  ---------------------------------------------------
  free energy    TOTEN  =      -247.78912294 eV

  energy without entropy =     -247.00650963  energy(sigma->0) =     -247.39781628


--------------------------------------------------------------------------------------------------------




--------------------------------------- Iteration      1(  20)  ---------------------------------------


    POTLOK:  cpu time    0.2012: real time    0.2014
    SETDIJ:  cpu time    0.0153: real time    0.0153
     EDDAV:  cpu time    4.3659: real time    4.3665
       DOS:  cpu time    0.0010: real time    0.0010
    CHARGE:  cpu time    0.1362: real time    0.1363
    MIXING:  cpu time    0.0120: real time    0.0120
    --------------------------------------------
      LOOP:  cpu time    4.7317: real time    4.7326

 eigenvalue-minimisations  :   960
 total energy-change (2. order) : 0.3090757E+00  (-0.1873704E-01)
 number of electron     572.0000306 magnetization 
 augmentation part      225.3236579 magnetization 

 Broyden mixing:
  rms(total) = 0.68119E+00    rms(broyden)= 0.68112E+00
  rms(prec ) = 0.79406E+00
  weight for this iteration     100.00

 eigenvalues of (default mixing * dielectric matrix)
  average eigenvalue GAMMA=   0.6384
  2.0687  1.8185  1.8185  0.6645  0.6645  0.5052  0.4721  0.4721  0.1919  0.1919
  0.1356  0.1356  0.1523  0.1523  0.1325

 Free energy of the ion-electron system (eV)
  ---------------------------------------------------
  alpha Z        PSCENC =      1046.73971423
  Ewald energy   TEWEN  =    126714.78959055
  -Hartree energ DENC   =   -213126.41216275
  -exchange      EXHF   =         0.00000000
  -V(xc)+E(xc)   XCENC  =      2640.99036143
  PAW double counting   =    103581.83564117  -107197.66282279
  entropy T*S    EENTRO =        -0.80926712
  eigenvalues    EBANDS =    -12131.05475188
  atomic energy  EATOM  =     98224.10364994
  Solvation  Ediel_sol  =         0.00000000
  ---------------------------------------------------
  free energy    TOTEN  =      -247.48004722 eV

  energy without entropy =     -246.67078011  energy(sigma->0) =     -247.07541367


--------------------------------------------------------------------------------------------------------




--------------------------------------- Iteration      1(  21)  ---------------------------------------


    POTLOK:  cpu time    0.2053: real time    0.2053
    SETDIJ:  cpu time    0.0138: real time    0.0138
     EDDAV:  cpu time    4.5310: real time    4.5690
       DOS:  cpu time    0.0009: real time    0.0009
    CHARGE:  cpu time    0.1357: real time    0.1357
    MIXING:  cpu time    0.0121: real time    0.0121
    --------------------------------------------
      LOOP:  cpu time    4.8989: real time    4.9369

 eigenvalue-minimisations  :  1008
 total energy-change (2. order) : 0.2149286E+00  (-0.7145136E-01)
 number of electron     572.0000305 magnetization 
 augmentation part      225.1449134 magnetization 

 Broyden mixing:
  rms(total) = 0.48501E+00    rms(broyden)= 0.48455E+00
  rms(prec ) = 0.55510E+00
  weight for this iteration     100.00

 eigenvalues of (default mixing * dielectric matrix)
  average eigenvalue GAMMA=   0.6396
  2.0495  1.8723  1.8723  0.8270  0.8270  0.4783  0.4783  0.4979  0.2427  0.2053
  0.1355  0.1355  0.1661  0.1661  0.1448  0.1349

 Free energy of the ion-electron system (eV)
  ---------------------------------------------------
  alpha Z        PSCENC =      1046.73971423
  Ewald energy   TEWEN  =    126714.78959055
  -Hartree energ DENC   =   -213164.29746118
  -exchange      EXHF   =         0.00000000
  -V(xc)+E(xc)   XCENC  =      2641.24422620
  PAW double counting   =    102810.30998486  -106418.59158702
  entropy T*S    EENTRO =        -0.83521862
  eigenvalues    EBANDS =    -12100.72801757
  atomic energy  EATOM  =     98224.10364994
  Solvation  Ediel_sol  =         0.00000000
  ---------------------------------------------------
  free energy    TOTEN  =      -247.26511862 eV

  energy without entropy =     -246.42990000  energy(sigma->0) =     -246.84750931


--------------------------------------------------------------------------------------------------------




--------------------------------------- Iteration      1(  22)  ---------------------------------------


    POTLOK:  cpu time    0.2036: real time    0.2036
    SETDIJ:  cpu time    0.0141: real time    0.0141
     EDDAV:  cpu time    4.2124: real time    4.2136
       DOS:  cpu time    0.0009: real time    0.0009
    CHARGE:  cpu time    0.1332: real time    0.1332
    MIXING:  cpu time    0.0127: real time    0.0127
    --------------------------------------------
      LOOP:  cpu time    4.5770: real time    4.5781

 eigenvalue-minimisations  :   920
 total energy-change (2. order) : 0.3031630E-01  (-0.3892246E-01)
 number of electron     572.0000303 magnetization 
 augmentation part      225.1478805 magnetization 

 Broyden mixing:
  rms(total) = 0.37952E+00    rms(broyden)= 0.37927E+00
  rms(prec ) = 0.42867E+00
  weight for this iteration     100.00

 eigenvalues of (default mixing * dielectric matrix)
  average eigenvalue GAMMA=   0.6353
  1.9352  1.8624  1.8624  0.9920  0.9920  0.4850  0.4850  0.4586  0.4586  0.1985
  0.1355  0.1355  0.1809  0.1809  0.1567  0.1464  0.1339

 Free energy of the ion-electron system (eV)
  ---------------------------------------------------
  alpha Z        PSCENC =      1046.73971423
  Ewald energy   TEWEN  =    126714.78959055
  -Hartree energ DENC   =   -213173.48071016
  -exchange      EXHF   =         0.00000000
  -V(xc)+E(xc)   XCENC  =      2641.18971892
  PAW double counting   =    102664.35528804  -106270.68002066
  entropy T*S    EENTRO =        -0.86063094
  eigenvalues    EBANDS =    -12093.39140224
  atomic energy  EATOM  =     98224.10364994
  Solvation  Ediel_sol  =         0.00000000
  ---------------------------------------------------
  free energy    TOTEN  =      -247.23480232 eV

  energy without entropy =     -246.37417138  energy(sigma->0) =     -246.80448685


--------------------------------------------------------------------------------------------------------




--------------------------------------- Iteration      1(  23)  ---------------------------------------


    POTLOK:  cpu time    0.2033: real time    0.2033
    SETDIJ:  cpu time    0.0138: real time    0.0138
     EDDAV:  cpu time    3.8278: real time    3.8288
       DOS:  cpu time    0.0009: real time    0.0009
    CHARGE:  cpu time    0.1334: real time    0.1334
    MIXING:  cpu time    0.0133: real time    0.0133
    --------------------------------------------
      LOOP:  cpu time    4.1927: real time    4.1936

 eigenvalue-minimisations  :   872
 total energy-change (2. order) :-0.1786658E-01  (-0.1873894E-01)
 number of electron     572.0000301 magnetization 
 augmentation part      225.1807342 magnetization 

 Broyden mixing:
  rms(total) = 0.38143E+00    rms(broyden)= 0.38128E+00
  rms(prec ) = 0.44297E+00
  weight for this iteration     100.00

 eigenvalues of (default mixing * dielectric matrix)
  average eigenvalue GAMMA=   0.6529
  2.1877  2.1877  1.2871  1.2871  1.1935  0.5799  0.5799  0.4870  0.4870  0.2311
  0.1909  0.1909  0.1355  0.1355  0.1572  0.1572  0.1351  0.1422

 Free energy of the ion-electron system (eV)
  ---------------------------------------------------
  alpha Z        PSCENC =      1046.73971423
  Ewald energy   TEWEN  =    126714.78959055
  -Hartree energ DENC   =   -213180.72007256
  -exchange      EXHF   =         0.00000000
  -V(xc)+E(xc)   XCENC  =      2641.18426002
  PAW double counting   =    102528.75966516  -106133.54932217
  entropy T*S    EENTRO =        -0.85396079
  eigenvalues    EBANDS =    -12087.70619328
  atomic energy  EATOM  =     98224.10364994
  Solvation  Ediel_sol  =         0.00000000
  ---------------------------------------------------
  free energy    TOTEN  =      -247.25266890 eV

  energy without entropy =     -246.39870811  energy(sigma->0) =     -246.82568851


--------------------------------------------------------------------------------------------------------




--------------------------------------- Iteration      1(  24)  ---------------------------------------


    POTLOK:  cpu time    0.2045: real time    0.2045
    SETDIJ:  cpu time    0.0138: real time    0.0138
     EDDAV:  cpu time    3.7531: real time    3.7543
       DOS:  cpu time    0.0010: real time    0.0010
    CHARGE:  cpu time    0.1351: real time    0.1351
    MIXING:  cpu time    0.0138: real time    0.0138
    --------------------------------------------
      LOOP:  cpu time    4.1213: real time    4.1225

 eigenvalue-minimisations  :   784
 total energy-change (2. order) : 0.4894518E-01  (-0.1373548E-01)
 number of electron     572.0000303 magnetization 
 augmentation part      225.3022310 magnetization 

 Broyden mixing:
  rms(total) = 0.24971E+00    rms(broyden)= 0.24957E+00
  rms(prec ) = 0.28503E+00
  weight for this iteration     100.00

 eigenvalues of (default mixing * dielectric matrix)
  average eigenvalue GAMMA=   0.6394
  1.9488  1.9488  1.4348  1.4348  1.3675  0.5557  0.5557  0.4855  0.4855  0.4859
  0.1355  0.1355  0.1952  0.1952  0.1858  0.1344  0.1444  0.1598  0.1598

 Free energy of the ion-electron system (eV)
  ---------------------------------------------------
  alpha Z        PSCENC =      1046.73971423
  Ewald energy   TEWEN  =    126714.78959055
  -Hartree energ DENC   =   -213184.30724118
  -exchange      EXHF   =         0.00000000
  -V(xc)+E(xc)   XCENC  =      2641.11665748
  PAW double counting   =    102473.11055497  -106077.28781242
  entropy T*S    EENTRO =        -0.84701387
  eigenvalues    EBANDS =    -12084.62182342
  atomic energy  EATOM  =     98224.10364994
  Solvation  Ediel_sol  =         0.00000000
  ---------------------------------------------------
  free energy    TOTEN  =      -247.20372372 eV

  energy without entropy =     -246.35670985  energy(sigma->0) =     -246.78021678


--------------------------------------------------------------------------------------------------------




--------------------------------------- Iteration      1(  25)  ---------------------------------------


    POTLOK:  cpu time    0.2054: real time    0.2054
    SETDIJ:  cpu time    0.0138: real time    0.0138
     EDDAV:  cpu time    4.3001: real time    4.3010
       DOS:  cpu time    0.0010: real time    0.0010
    CHARGE:  cpu time    0.1326: real time    0.1326
    MIXING:  cpu time    0.0143: real time    0.0143
    --------------------------------------------
      LOOP:  cpu time    4.6672: real time    4.6681

 eigenvalue-minimisations  :   944
 total energy-change (2. order) : 0.1823658E-01  (-0.7662781E-02)
 number of electron     572.0000302 magnetization 
 augmentation part      225.4132719 magnetization 

 Broyden mixing:
  rms(total) = 0.21198E+00    rms(broyden)= 0.21187E+00
  rms(prec ) = 0.23881E+00
  weight for this iteration     100.00

 eigenvalues of (default mixing * dielectric matrix)
  average eigenvalue GAMMA=   0.6516
  2.2605  2.2605  1.4977  1.4977  0.8796  0.7516  0.7516  0.5387  0.4828  0.4828
  0.2028  0.2028  0.1355  0.1355  0.1895  0.1745  0.1348  0.1419  0.1562  0.1546

 Free energy of the ion-electron system (eV)
  ---------------------------------------------------
  alpha Z        PSCENC =      1046.73971423
  Ewald energy   TEWEN  =    126714.78959055
  -Hartree energ DENC   =   -213179.77488843
  -exchange      EXHF   =         0.00000000
  -V(xc)+E(xc)   XCENC  =      2641.05226529
  PAW double counting   =    102597.65378569  -106203.10974927
  entropy T*S    EENTRO =        -0.83945524
  eigenvalues    EBANDS =    -12087.80039989
  atomic energy  EATOM  =     98224.10364994
  Solvation  Ediel_sol  =         0.00000000
  ---------------------------------------------------
  free energy    TOTEN  =      -247.18548714 eV

  energy without entropy =     -246.34603190  energy(sigma->0) =     -246.76575952


--------------------------------------------------------------------------------------------------------




--------------------------------------- Iteration      1(  26)  ---------------------------------------


    POTLOK:  cpu time    0.2052: real time    0.2053
    SETDIJ:  cpu time    0.0139: real time    0.0139
     EDDAV:  cpu time    3.9218: real time    3.9600
       DOS:  cpu time    0.0009: real time    0.0009
    CHARGE:  cpu time    0.1343: real time    0.1343
    MIXING:  cpu time    0.0164: real time    0.0164
    --------------------------------------------
      LOOP:  cpu time    4.2923: real time    4.3307

 eigenvalue-minimisations  :   824
 total energy-change (2. order) : 0.1048899E-01  (-0.4436575E-02)
 number of electron     572.0000302 magnetization 
 augmentation part      225.4201339 magnetization 

 Broyden mixing:
  rms(total) = 0.13434E+00    rms(broyden)= 0.13425E+00
  rms(prec ) = 0.15634E+00
  weight for this iteration     100.00

 eigenvalues of (default mixing * dielectric matrix)
  average eigenvalue GAMMA=   0.6665
  2.3702  2.3702  1.6348  1.6348  0.8274  0.8274  0.6789  0.4839  0.4839  0.5341
  0.5341  0.2121  0.1919  0.1919  0.1355  0.1355  0.1601  0.1601  0.1346  0.1434
  0.1515

 Free energy of the ion-electron system (eV)
  ---------------------------------------------------
  alpha Z        PSCENC =      1046.73971423
  Ewald energy   TEWEN  =    126714.78959055
  -Hartree energ DENC   =   -213183.74081309
  -exchange      EXHF   =         0.00000000
  -V(xc)+E(xc)   XCENC  =      2641.08972511
  PAW double counting   =    102598.19606118  -106203.91705338
  entropy T*S    EENTRO =        -0.84289254
  eigenvalues    EBANDS =    -12083.59298015
  atomic energy  EATOM  =     98224.10364994
  Solvation  Ediel_sol  =         0.00000000
  ---------------------------------------------------
  free energy    TOTEN  =      -247.17499815 eV

  energy without entropy =     -246.33210561  energy(sigma->0) =     -246.75355188


--------------------------------------------------------------------------------------------------------




--------------------------------------- Iteration      1(  27)  ---------------------------------------


    POTLOK:  cpu time    0.2061: real time    0.2063
    SETDIJ:  cpu time    0.0138: real time    0.0138
     EDDAV:  cpu time    4.3492: real time    4.3500
       DOS:  cpu time    0.0011: real time    0.0010
    CHARGE:  cpu time    0.1350: real time    0.1350
    MIXING:  cpu time    0.0160: real time    0.0160
    --------------------------------------------
      LOOP:  cpu time    4.7211: real time    4.7221

 eigenvalue-minimisations  :   952
 total energy-change (2. order) : 0.4591846E-02  (-0.2102682E-02)
 number of electron     572.0000303 magnetization 
 augmentation part      225.4620402 magnetization 

 Broyden mixing:
  rms(total) = 0.11397E+00    rms(broyden)= 0.11391E+00
  rms(prec ) = 0.12988E+00
  weight for this iteration     100.00

 eigenvalues of (default mixing * dielectric matrix)
  average eigenvalue GAMMA=   0.6876
  2.8161  2.0637  1.8032  1.8032  0.9832  0.9832  0.6743  0.6743  0.5566  0.4844
[...]
    344       5.7100      0.00000


--------------------------------------------------------------------------------------------------------


 soft charge-density along one line, spin component           1
         0         1         2         3         4         5         6         7         8         9
 total charge-density along one line
 
 pseudopotential strength for first ion, spin component:           1
-65.961   0.005  -0.101  12.325  -0.003   0.043   0.006   0.011
  0.005 -66.046   0.008  -0.003  12.358  -0.003   0.015   0.008
 -0.101   0.008 -66.092   0.043  -0.003  12.380   0.012   0.015
 12.325  -0.003   0.043   4.849   0.000  -0.011  -0.002  -0.007
 -0.003  12.358  -0.003   0.000   4.837   0.001  -0.003  -0.002
  0.043  -0.003  12.380  -0.011   0.001   4.833  -0.003  -0.003
  0.006   0.015   0.012  -0.002  -0.003  -0.003 -11.224  -0.014
  0.011   0.008   0.015  -0.007  -0.002  -0.003  -0.014 -11.162
 -0.003   0.017  -0.007   0.001  -0.009   0.002   0.042   0.017
  0.015  -0.001   0.025  -0.003  -0.002  -0.010  -0.010  -0.108
 -0.002   0.007   0.005   0.000  -0.001  -0.004  -0.025  -0.010
  0.006   0.015   0.012  -0.002  -0.003  -0.003 -11.766  -0.014
  0.011   0.008   0.015  -0.006  -0.002  -0.003  -0.014 -11.704
 -0.003   0.016  -0.007   0.001  -0.009   0.002   0.041   0.017
  0.015  -0.001   0.025  -0.003  -0.001  -0.009  -0.010  -0.107
 -0.002   0.007   0.005   0.000  -0.001  -0.003  -0.024  -0.009
 -0.003  -0.005  -0.001  -0.001   0.004   0.002   0.021  -0.002
 -0.008  -0.011  -0.001  -0.003   0.009   0.004   0.044  -0.004
 total augmentation occupancy for first ion, spin component:           1
  1.995   0.000  -0.000  -0.018   0.000  -0.000   0.010   0.001  -0.004   0.007  -0.007  -0.009   0.000   0.004  -0.007   0.007
  0.000   1.995  -0.000   0.000  -0.019  -0.000   0.007   0.009  -0.010  -0.013   0.005  -0.007  -0.009   0.010   0.013  -0.005
 -0.000  -0.000   1.995  -0.000  -0.000  -0.018   0.010   0.007  -0.004   0.011  -0.017  -0.010  -0.007   0.003  -0.010   0.016
 -0.018   0.000  -0.000   0.144  -0.004   0.024   0.253   0.126  -0.029   0.019  -0.058  -0.243  -0.137   0.028  -0.053   0.050
  0.000  -0.019  -0.000  -0.004   0.136  -0.006   0.071   0.115  -0.090  -0.158   0.067  -0.097  -0.115   0.058   0.156  -0.075
 -0.000  -0.000  -0.018   0.024  -0.006   0.170   0.063   0.054  -0.079   0.216  -0.251  -0.078  -0.080   0.087  -0.251   0.228
  0.010   0.007   0.010   0.253   0.071   0.063   4.133  -0.156  -0.333  -0.163  -0.193  -2.671  -0.058   0.097  -0.002  -0.101
  0.001   0.009   0.007   0.126   0.115   0.054  -0.156   3.917  -0.061  -0.116   0.053  -0.054  -2.050   0.222  -0.479  -0.106
 -0.004  -0.010  -0.004  -0.029  -0.090  -0.079  -0.333  -0.061   4.439   0.372  -0.193   0.114   0.224  -2.424  -0.002   0.039
  0.007  -0.013   0.011   0.019  -0.158   0.216  -0.163  -0.116   0.372   3.751  -0.000  -0.001  -0.480   0.003  -2.632   0.071
 -0.007   0.005  -0.017  -0.058   0.067  -0.251  -0.193   0.053  -0.193  -0.000   4.566  -0.100  -0.110   0.032   0.067  -2.613
 -0.009  -0.007  -0.010  -0.243  -0.097  -0.078  -2.671  -0.054   0.114  -0.001  -0.100   2.907   0.202   0.033   0.119   0.300
  0.000  -0.009  -0.007  -0.137  -0.115  -0.080  -0.058  -2.050   0.224  -0.480  -0.110   0.202   1.997  -0.327   0.878   0.134
  0.004   0.010   0.003   0.028   0.058   0.087   0.097   0.222  -2.424   0.003   0.032   0.033  -0.327   2.247  -0.258   0.069
 -0.007   0.013  -0.010  -0.053   0.156  -0.251  -0.002  -0.479  -0.002  -2.632   0.067   0.119   0.878  -0.258   3.087  -0.131
  0.007  -0.005   0.016   0.050  -0.075   0.228  -0.101  -0.106   0.039   0.071  -2.613   0.300   0.134   0.069  -0.131   2.503
  0.009  -0.005  -0.003  -0.041  -0.108   0.000  -0.699   0.090   0.328   0.153  -0.375   0.541  -0.042  -0.282  -0.134   0.277
 -0.004   0.003   0.002   0.004   0.003  -0.002   0.068  -0.013  -0.025  -0.011   0.048  -0.018   0.007   0.020   0.006  -0.013


------------------------ aborting loop because EDIFF is reached ----------------------------------------


    CHARGE:  cpu time    0.1334: real time    0.1334
    FORLOC:  cpu time    0.0632: real time    0.0632
    FORNL :  cpu time    0.8593: real time    0.8595
    STRESS:  cpu time    2.1343: real time    2.1347
    FORCOR:  cpu time    0.2556: real time    0.2556
    FORHAR:  cpu time    0.1042: real time    0.1045
    MIXING:  cpu time    0.0186: real time    0.0186
    OFIELD:  cpu time    0.0001: real time    0.0001

  FORCE on cell =-STRESS in cart. coord.  units (eV):
  Direction    XX          YY          ZZ          XY          YZ          ZX
  --------------------------------------------------------------------------------------
  Alpha Z  1046.73971  1046.73971  1046.73971
  Ewald  163019.28908160335.04253************   614.68691   347.48014   745.85184
  Hartree187401.82080185353.23516************   439.40752   246.81464   562.00726
  E(xc)   -3652.66926 -3653.52050 -3657.74599     0.18260     0.12480     0.52770
  Local  ************************347056.69750 -1052.12866  -589.27511 -1289.05457
  n-local  -412.43773  -427.21968  -432.40107     2.11117    -0.94178     0.94928
  augment  4168.59032  4185.79031  4188.80654    -3.88215     0.37974    -7.63150
  Kinetic  8018.64837  8024.57860  8086.01892    -1.85863    -2.48163   -14.51126
  Fock        0.00000     0.00000     0.00000     0.00000     0.00000     0.00000
  -------------------------------------------------------------------------------------
  Total     100.92457    92.87183   102.88942    -1.48124     2.10079    -1.86126
  in kB      87.23149    80.27131    88.92975    -1.28027     1.81577    -1.60873
  external pressure =       85.48 kB  Pullay stress =        0.00 kB


 VOLUME and BASIS-vectors are now :
 -----------------------------------------------------------------------------
  energy-cutoff  :      450.00
  volume of cell :     1853.68
      direct lattice vectors                 reciprocal lattice vectors
    11.256463038  0.000000000  0.000000000     0.088837852  0.000000000  0.000000000
     0.000000000  9.578410000  0.000000000     0.000000000  0.104401461  0.000000000
     0.000000000  0.000000000 17.192492405     0.000000000  0.000000000  0.058164923

  length of vectors
    11.256463038  9.578410000 17.192492405     0.088837852  0.104401461  0.058164923


 FORCES acting on ions
    electron-ion (+dipol)            ewald-force                    non-local-force                 convergence-correction
 -----------------------------------------------------------------------------------------------
   0.262E+03 -.399E+03 0.139E+04   -.263E+03 0.401E+03 -.140E+04   0.159E+01 -.122E+01 0.452E+01   0.391E-01 0.938E-01 0.327E+00
   0.454E+03 -.101E+04 -.322E+04   -.454E+03 0.101E+04 0.322E+04   -.595E+00 -.466E+00 -.136E+01   0.308E-01 0.132E+00 0.216E+00
   0.228E+03 -.654E+03 0.337E+04   -.227E+03 0.658E+03 -.338E+04   -.419E+00 -.215E+01 0.107E+02   0.972E-01 -.135E-01 0.106E+00
   0.547E+03 -.341E+03 -.109E+04   -.549E+03 0.344E+03 0.110E+04   0.919E+00 -.324E+01 -.291E+01   0.516E-02 -.122E+00 0.216E+00
   0.535E+03 0.176E+03 0.166E+04   -.536E+03 -.177E+03 -.166E+04   0.149E+01 0.964E+00 0.509E+01   0.598E-01 0.185E-01 0.199E+00
   0.434E+03 0.179E+03 -.326E+04   -.436E+03 -.185E+03 0.326E+04   0.780E+00 0.331E+01 -.373E+01   0.135E+00 0.116E+00 0.200E+00
   -.252E+03 0.420E+03 0.275E+04   0.252E+03 -.422E+03 -.276E+04   -.104E+00 0.821E+00 0.608E+01   0.130E+00 -.484E-01 0.195E+00
   0.144E+02 0.153E+03 -.197E+04   -.140E+02 -.153E+03 0.197E+04   -.429E+00 -.581E-01 -.166E+01   0.866E-01 -.217E-01 0.298E+00
   -.186E+03 0.684E+03 0.172E+04   0.190E+03 -.689E+03 -.173E+04   -.405E+01 0.459E+01 0.483E+01   -.264E-01 0.188E-01 0.117E+00
   -.704E+03 -.264E+03 -.282E+04   0.713E+03 0.266E+03 0.281E+04   -.760E+01 -.431E+00 0.131E+01   0.956E-01 0.128E+00 0.186E+00
   0.273E+03 -.361E+01 0.352E+04   -.274E+03 0.448E+01 -.353E+04   0.545E+00 -.111E+01 0.527E+01   0.497E-02 -.946E-02 0.523E-01
   -.856E+02 0.496E+03 -.104E+04   0.867E+02 -.499E+03 0.105E+04   -.711E+00 0.209E+01 -.590E+01   0.579E-01 -.918E-01 0.313E+00
   0.337E+03 0.325E+03 -.273E+04   -.338E+03 -.326E+03 0.274E+04   0.155E+01 0.146E+01 -.321E+01   0.857E-01 -.700E-01 0.207E+00
   0.443E+03 0.666E+02 0.163E+04   -.447E+03 -.644E+02 -.163E+04   0.325E+01 -.192E+01 0.514E+01   -.105E+00 -.138E-01 0.206E+00
   0.137E+03 -.634E+03 -.304E+04   -.142E+03 0.640E+03 0.304E+04   0.409E+01 -.526E+01 -.759E+00   -.698E-01 0.924E-01 0.149E+00
   -.528E+03 -.461E+03 0.310E+04   0.531E+03 0.468E+03 -.310E+04   -.152E+01 -.631E+01 0.608E+01   0.117E-01 0.264E-01 0.965E-01
   -.221E+03 -.473E+03 -.111E+04   0.222E+03 0.476E+03 0.111E+04   -.614E-01 -.194E+01 -.228E+01   -.105E+00 -.114E+00 0.322E+00
   -.182E+03 0.308E+03 0.130E+04   0.181E+03 -.312E+03 -.131E+04   0.155E+01 0.354E+01 0.567E+01   -.513E-01 0.468E-01 0.142E+00
   0.241E+03 0.559E+03 -.318E+04   -.246E+03 -.564E+03 0.318E+04   0.401E+01 0.394E+01 -.208E+01   -.110E+00 0.167E-01 0.189E+00
   -.299E+03 0.504E+03 0.316E+04   0.301E+03 -.510E+03 -.316E+04   -.403E+00 0.590E+01 0.580E+01   0.305E-01 -.373E-01 0.113E+00
   0.286E+03 0.752E+03 -.129E+04   -.288E+03 -.757E+03 0.129E+04   0.162E+01 0.339E+01 -.409E+01   -.213E-01 -.108E-01 0.307E+00
   -.535E+03 -.126E+03 0.238E+04   0.539E+03 0.126E+03 -.238E+04   -.313E+01 0.164E+00 0.617E+01   0.543E-01 0.520E-01 0.180E+00
   -.587E+03 -.168E+03 -.247E+04   0.593E+03 0.167E+03 0.247E+04   -.386E+01 0.281E+00 -.307E+01   -.146E+00 0.144E+00 0.239E+00
   0.517E+03 -.427E+03 0.335E+04   -.517E+03 0.426E+03 -.336E+04   -.933E+00 0.982E+00 0.466E+01   -.112E+00 -.736E-01 0.417E-01
   -.749E+03 -.109E+03 -.304E+03   0.751E+03 0.108E+03 0.303E+03   -.139E+01 0.332E+00 -.683E+00   -.162E+00 -.605E-01 0.409E+00
   -.426E+03 0.273E+02 -.430E+04   0.427E+03 -.291E+02 0.431E+04   -.540E-01 0.244E+01 -.366E+01   -.410E-01 -.910E-01 0.738E-01
   -.840E+02 0.247E+03 -.801E+02   0.855E+02 -.249E+03 0.770E+02   -.890E+00 0.909E+00 0.741E+00   -.784E-02 -.164E-01 0.709E-01
   -.204E+03 0.334E+03 -.163E+04   0.208E+03 -.339E+03 0.164E+04   -.247E+01 0.383E+01 -.102E+01   -.737E-03 -.110E-01 0.829E-01
   -.225E+03 0.269E+03 0.667E+03   0.228E+03 -.271E+03 -.669E+03   -.637E+00 0.189E+00 0.169E+01   0.112E-02 -.706E-02 0.107E+00
   0.108E+03 0.313E+03 0.167E+04   -.109E+03 -.315E+03 -.168E+04   0.798E+00 0.482E+00 0.256E+01   -.337E-01 -.270E-01 -.313E-01
   -.103E+03 -.139E+03 -.446E+03   0.103E+03 0.142E+03 0.447E+03   0.388E+00 -.888E+00 -.471E+00   0.648E-02 0.599E-01 0.997E-01
   -.238E+02 -.179E+03 -.182E+04   0.208E+02 0.184E+03 0.183E+04   0.257E+01 -.410E+01 -.395E+01   -.185E-01 0.341E-01 0.697E-01
   0.171E+03 -.383E+03 0.839E+03   -.171E+03 0.386E+03 -.841E+03   0.173E+00 -.861E+00 -.620E-01   0.388E-02 -.215E-01 0.574E-01
   0.276E+03 0.539E+02 -.133E+04   -.277E+03 -.532E+02 0.133E+04   0.318E-02 -.705E+00 -.174E+01   0.581E-01 -.336E-01 0.709E-01
   0.135E+03 0.104E+03 0.135E+04   -.135E+03 -.105E+03 -.136E+04   -.786E-01 -.125E+00 0.378E+01   0.546E-02 0.176E-01 -.806E-02
   0.268E+03 -.102E+03 -.569E+03   -.270E+03 0.102E+03 0.569E+03   -.191E-01 0.845E+00 -.591E+00   0.102E+00 0.951E-01 0.152E+00
   0.815E+01 -.560E+02 0.187E+04   -.777E+01 0.557E+02 -.188E+04   -.182E+00 0.260E+00 0.160E+01   0.473E-01 -.441E-02 -.107E+00
   0.210E+03 -.291E+03 0.231E+03   -.211E+03 0.294E+03 -.228E+03   -.132E+01 -.147E+01 -.129E+01   0.623E-01 -.121E-02 0.150E+00
   0.235E+02 -.685E+02 0.164E+04   -.243E+02 0.687E+02 -.165E+04   0.595E+00 -.356E-01 0.282E+01   0.219E-01 -.502E-02 -.393E-01
   -.148E+03 0.749E+01 -.189E+03   0.150E+03 -.741E+01 0.188E+03   -.207E+01 -.193E+01 0.298E+00   0.974E-02 0.145E-01 0.139E+00
   -.101E+03 -.232E+02 -.185E+04   0.102E+03 0.228E+02 0.185E+04   -.297E+00 0.270E+00 -.661E+00   -.324E-01 0.872E-01 -.379E-01
   0.414E+02 0.138E+03 0.767E+03   -.412E+02 -.140E+03 -.770E+03   -.900E+00 0.461E+00 0.235E+01   -.557E-01 -.434E-01 0.111E+00
   -.168E+03 0.192E+03 -.117E+04   0.169E+03 -.194E+03 0.117E+04   -.324E+00 0.100E+00 0.136E+00   -.476E-01 0.374E-01 0.837E-01
   -.450E-01 0.169E+02 0.150E+04   -.420E+00 -.166E+02 -.151E+04   0.504E+00 0.600E-01 0.380E+01   -.451E-03 -.984E-02 -.250E-02
   -.640E+02 -.231E+03 -.241E+03   0.652E+02 0.233E+03 0.241E+03   -.776E+00 0.849E-01 -.105E+01   -.442E-01 -.190E-01 0.197E+00
   -.273E+03 -.857E+02 0.101E+04   0.276E+03 0.847E+02 -.101E+04   -.175E+01 0.497E+00 0.396E+01   -.313E-01 0.662E-02 0.459E-01
   -.204E+03 -.104E+03 -.941E+03   0.205E+03 0.103E+03 0.943E+03   -.102E+01 0.504E+00 -.119E+01   -.467E-01 -.513E-01 0.109E+00
   -.236E+02 0.603E+02 0.122E+04   0.230E+02 -.620E+02 -.123E+04   0.431E+00 0.135E+01 0.385E+01   0.405E-02 0.185E-01 0.170E-01
   0.201E+03 -.579E+02 -.563E+03   -.204E+03 0.587E+02 0.565E+03   0.158E+01 0.344E+00 -.714E+00   -.530E-01 0.364E-01 0.833E-01
   -.135E+03 -.118E+02 0.185E+04   0.136E+03 0.114E+02 -.185E+04   -.111E+00 0.474E+00 0.226E+01   0.597E-02 0.168E-01 -.691E-01
   0.767E+02 0.170E+03 0.225E+03   -.784E+02 -.173E+03 -.222E+03   -.555E-01 0.193E+01 -.394E+00   0.465E-02 0.122E-02 0.141E+00
   0.291E+03 0.228E+03 -.160E+04   -.294E+03 -.230E+03 0.160E+04   0.154E+01 0.140E+01 -.218E+01   0.211E-01 -.508E-02 0.318E-01
 -----------------------------------------------------------------------------------------------
   0.837E+01 -.142E+02 -.570E+02   0.108E-11 0.398E-12 -.205E-11   -.820E+01 0.140E+02 0.504E+02   -.431E-01 0.276E+00 0.663E+01
 
 
 POSITION                                       TOTAL-FORCE (eV/Angst)
 -----------------------------------------------------------------------------------
      4.94536      4.44331      2.79952         0.110985      0.900963      1.985014
      5.53264      4.32460      5.57550        -0.790781      1.627403      0.767747
      2.64872      7.92646      1.78753         0.291515      1.518318     -1.248690
      2.32735      9.33337      4.07354        -0.756379     -0.094112      0.294745
      4.94536      1.91264      2.79952        -0.064053     -0.234737      1.619873
      5.33754      1.80185      5.54313        -0.820367     -1.752884      0.709096
      1.78238      5.51008      2.03239         0.451724     -1.180454     -0.053659
      2.28589      6.65176      4.08424         0.079395      0.110675      1.092927
      1.74589      3.16685      2.85624        -0.109487     -0.690055     -0.137313
      2.05421      3.17797      5.47658         1.555427      1.260724     -1.917995
      5.20432      8.24059      1.58386        -0.958653     -0.257068     -0.247167
      4.29839      7.96837      3.82248         0.449675     -0.883259      0.532744
      5.90297      9.13228      5.01830         0.187732      0.018671      0.785764
     10.57359      4.44331      2.79952        -0.727254      0.277714      1.193419
     10.98163      4.60740      5.48941        -0.566905      1.170169     -0.015472
      7.38057      9.55489      1.89417         0.603286     -0.051415     -0.166285
      8.05131      9.23251      4.34179         1.099947      1.624263     -1.511269
     10.36701      1.69644      3.31438         0.842642      0.069295     -0.638211
     11.16491      1.95659      5.68959        -1.402832     -0.902216      0.299109
      7.44149      6.61927      1.71213         0.795293     -0.509692     -0.371812
      8.05131      6.70184      4.34179        -0.268924     -1.235236     -1.174528
      7.09877      3.17797      2.39204         0.852910      0.225301      1.915973
      7.69021      3.17248      5.13325         1.734831      0.109706      0.453412
     11.13588      6.99602      1.66187        -0.834029      0.771511      0.213644
     10.20472      7.96718      3.93431         0.711450      0.147778     -1.611975
      9.31712      8.19693      6.23662         0.773768      0.490658      1.680371
      1.25497      1.56674      4.10795         0.572011     -1.177226     -2.281930
      1.63870      1.66065      6.83623         1.475047     -1.760739      2.620487
      3.77725      6.35595      2.56568         2.288236     -1.921632      0.273883
      0.63044      3.96433      1.30179        -0.108105     -0.804823     -3.101064
      1.25497      4.78920      4.10795         1.000492      1.889835      0.542307
      0.60198      3.47588      6.96187        -0.433845      1.232967      4.216992
      3.77725      9.57841      2.56568         0.800385      2.000938     -2.311597
      3.96532      9.57130      5.36989        -0.753928     -0.041351      2.689492
      3.58906      3.20391      1.86565        -0.763268     -0.575075     -2.470844
      4.14113      3.17797      4.62682        -2.141222      0.671076     -0.787595
      1.49978      6.83030      0.45561         0.247594      0.008081     -4.076797
      1.03518      7.96718      3.08454        -2.218261      0.872976      2.296740
      6.30915      1.63086      1.27399        -0.149818      0.208923     -3.193665
      6.88320      1.56674      4.10795         0.076912     -1.839006     -0.676519
      6.46792      2.99498      6.77950         0.528101     -0.067822      3.241653
      9.40548      6.35595      2.56568        -0.678194     -1.236433     -0.538794
      9.89841      6.42828      5.39835         1.153613     -1.291602      2.037460
      6.40906      4.84879      1.38272         0.036383      0.362420     -2.813080
      6.88320      4.78920      4.10795         0.374066      1.701204     -0.733269
      9.40548      9.57841      2.56568         0.557003     -0.554982     -1.536922
     10.03252      0.20955      5.12932         0.255372     -0.131406      1.643783
      9.19328      3.01086      2.09243        -0.176426     -0.370248     -2.228815
      9.76936      3.17797      4.62682        -1.829856      1.143334      0.980969
      6.89508      8.14530      0.43443         0.386179      0.142019     -3.644092
      6.66341      7.96718      3.08454        -1.781115     -0.324286      3.034676
      7.33388      7.93483      5.91905        -1.958272     -0.669164      2.367078
 -----------------------------------------------------------------------------------
    total drift:                                0.131243      0.102246      0.071014


--------------------------------------------------------------------------------------------------------



  FREE ENERGIE OF THE ION-ELECTRON SYSTEM (eV)
  ---------------------------------------------------
  free  energy   TOTEN  =      -247.16409020 eV

  energy  without entropy=     -246.32671669  energy(sigma->0) =     -246.74540344
 


--------------------------------------------------------------------------------------------------------


    POTLOK:  cpu time    0.2176: real time    0.2176


--------------------------------------------------------------------------------------------------------


     LOOP+:  cpu time  143.3359: real time  143.6128
    4ORBIT:  cpu time    0.0000: real time    0.0000

 total amount of memory used by VASP MPI-rank0    60040. kBytes
=======================================================================

   base      :      30000. kBytes
   nonlr-proj:       1505. kBytes
   fftplans  :       7078. kBytes
   grid      :      11974. kBytes
   one-center:         69. kBytes
   wavefun   :       9414. kBytes
 
  
  
 General timing and accounting informations for this job:
 ========================================================
  
                  Total CPU time used (sec):      145.311
                            User time (sec):      144.986
                          System time (sec):        0.325
                         Elapsed time (sec):      145.838
  
                   Maximum memory used (kb):      162200.
                   Average memory used (kb):           0.
  
                          Minor page faults:        93240
                          Major page faults:            0
                 Voluntary context switches:          232
