       N       E                     dE             d eps       ncg     rms          rms(c)
DAV:   1     0.646452318275E+04    0.64645E+04   -0.36673E+05   848   0.154E+03
DAV:   2     0.338291441662E+03   -0.61262E+04   -0.59108E+04   744   0.492E+02
DAV:   3    -0.247234528227E+03   -0.58553E+03   -0.56394E+03   784   0.163E+02
DAV:   4    -0.278745431933E+03   -0.31511E+02   -0.31175E+02   816   0.358E+01
DAV:   5    -0.279806939956E+03   -0.10615E+01   -0.10594E+01   816   0.677E+00    0.866E+01
DAV:   6    -0.320500935658E+03   -0.40694E+02   -0.65035E+02   880   0.121E+02    0.127E+02
DAV:   7    -0.251990367757E+03    0.68511E+02   -0.14017E+02   824   0.738E+01    0.513E+01
DAV:   8    -0.282109230279E+03   -0.30119E+02   -0.15498E+02   968   0.775E+01    0.104E+02
DAV:   9    -0.259526396977E+03    0.22583E+02   -0.95219E+01   912   0.544E+01    0.448E+01
DAV:  10    -0.271349983095E+03   -0.11824E+02   -0.56902E+01   960   0.571E+01    0.782E+01
DAV:  11    -0.253483086034E+03    0.17867E+02   -0.32111E+01   944   0.378E+01    0.323E+01
DAV:  12    -0.250034303588E+03    0.34488E+01   -0.14548E+01   952   0.285E+01    0.249E+01
DAV:  13    -0.248497506692E+03    0.15368E+01   -0.88233E+00   928   0.243E+01    0.242E+01
DAV:  14    -0.246903391005E+03    0.15941E+01   -0.55282E+00   952   0.168E+01    0.154E+01
DAV:  15    -0.246085884720E+03    0.81751E+00   -0.15080E+00   960   0.989E+00    0.113E+01
DAV:  16    -0.245843204356E+03    0.24268E+00   -0.78939E-01   944   0.679E+00    0.101E+01
DAV:  17    -0.245629045831E+03    0.21416E+00   -0.32920E-01   952   0.455E+00    0.856E+00
DAV:  18    -0.245472004170E+03    0.15704E+00   -0.19548E-01   944   0.345E+00    0.757E+00
DAV:  19    -0.245237768354E+03    0.23424E+00   -0.21475E-01  1024   0.370E+00    0.563E+00
DAV:  20    -0.245137567139E+03    0.10020E+00   -0.31507E-01   952   0.437E+00    0.452E+00
DAV:  21    -0.245046174104E+03    0.91393E-01   -0.24477E-01   944   0.336E+00    0.225E+00
DAV:  22    -0.245043172456E+03    0.30016E-02   -0.84757E-02   872   0.184E+00    0.196E+00
DAV:  23    -0.245033466606E+03    0.97058E-02   -0.32959E-02   832   0.129E+00    0.150E+00
DAV:  24    -0.245031021037E+03    0.24456E-02   -0.20561E-02   928   0.122E+00    0.144E+00
DAV:  25    -0.245023646995E+03    0.73740E-02   -0.20777E-02   944   0.114E+00    0.906E-01
DAV:  26    -0.245024910896E+03   -0.12639E-02   -0.17555E-02   944   0.106E+00    0.101E+00
DAV:  27    -0.245021103504E+03    0.38074E-02   -0.97661E-03   888   0.871E-01    0.523E-01
DAV:  28    -0.245020511164E+03    0.59234E-03   -0.29437E-03   944   0.377E-01    0.367E-01
DAV:  29    -0.245020278946E+03    0.23222E-03   -0.19766E-03   912   0.330E-01    0.147E-01
DAV:  30    -0.245020634466E+03   -0.35552E-03   -0.12354E-03   840   0.257E-01    0.203E-01
DAV:  31    -0.245020620504E+03    0.13962E-04   -0.53049E-04   608   0.202E-01
   1 F= -.24502062E+03 E0= -.24461638E+03  d E =-.808474E+00
