LAMMPS data file via write_data, version 5 Jun 2019, timestep = 35

54 atoms
2 atom types

0.0000000000000000e+00 9.5784099999999999e+00 xlo xhi
0.0000000000000000e+00 8.8693028200999997e+00 ylo yhi
0.0000000000000000e+00 1.9011135740000000e+01 zlo zhi
-4.7892049999999999e+00 0.0000000000000000e+00 0.0000000000000000e+00 xy xz yz

Masses

1 58.71
2 32.06

Atoms # atomic

1 1 1.7542224339014052e+00 8.1076252839384217e+00 2.3852234767821252e+00 0 0 0
2 1 1.7973757104999999e+00 7.0064240171999996e+00 4.8934299332000002e+00 0 0 0
3 1 1.6827264705119034e+00 6.0387931789691223e+00 7.5016531498827783e+00 0 0 0
4 1 1.7973757057000004e+00 1.4639370387999999e+00 3.9147439464999998e+00 0 0 0
5 1 1.7973757009000004e+00 3.5279233360000001e-01 6.8508019063999992e+00 0 0 0
6 1 -2.9487841902379883e+00 5.4848373283319685e+00 5.9498841100321842e-01 0 0 0
7 1 6.5865807057000003e+00 4.7907528894000002e+00 2.9360579598999990e+00 0 0 0
8 1 6.5865807057000012e+00 3.6796081753999998e+00 5.8721159197999979e+00 0 0 0
9 1 3.0628638375140769e+00 6.1108285463576566e+00 1.7178769466357700e+00 0 0 0
10 1 3.0627123971000003e+00 4.9566720992000004e+00 4.1177058050999999e+00 0 0 0
11 1 3.0627124066999993e+00 3.8455273851000000e+00 7.0537637649999985e+00 0 0 0
12 1 3.0627113246499444e+00 1.4847808435355401e+00 1.7962520617964381e+00 0 0 0
13 1 -1.7264925981000008e+00 8.2834879410000006e+00 3.1390198184000000e+00 0 0 0
14 1 -1.7264925981000001e+00 7.1723432268999998e+00 6.0750777782999998e+00 0 0 0
15 1 -1.3513435368984306e+00 5.5745811644433934e+00 7.7407286955115717e+00 0 0 0
16 1 7.8519174067000019e+00 2.7410009625999998e+00 2.1603338318000000e+00 0 0 0
17 1 7.8519174019000006e+00 1.6298562574000000e+00 5.0963917917000003e+00 0 0 0
18 1 7.6944522034669456e+00 6.2648886105689705e-01 7.2979764456911198e+00 0 0 0
19 1 4.3714443007120538e+00 8.1088029441183522e+00 2.3846734312514219e+00 0 0 0
20 1 4.3280491029000006e+00 7.0064240171999996e+00 4.8934299332000002e+00 0 0 0
21 1 4.6995283566393544e+00 6.2846993597723317e+00 7.3316531200632591e+00 0 0 0
22 1 4.3280490981000019e+00 1.4639370387999999e+00 3.9147439464999998e+00 0 0 0
23 1 4.3280490933000006e+00 3.5279233360000001e-01 6.8508019063999992e+00 0 0 0
24 1 -5.1656678692179470e-01 5.4752548775452086e+00 5.9110619060090475e-01 0 0 0
25 1 -4.6115590189999989e-01 4.7907528894000002e+00 2.9360579598999990e+00 0 0 0
26 1 -4.6115590189999983e-01 3.6796081753999998e+00 5.8721159197999979e+00 0 0 0
27 1 1.6340139434958367e-01 3.1658680612553147e+00 8.0996047651235550e+00 0 0 0
28 2 4.6739446447999997e+00 5.9817243888000000e+00 2.9088994307999996e+00 0 0 0
29 2 4.6739446400000020e+00 4.8705796835999999e+00 5.8449573907000003e+00 0 0 0
30 2 4.2694300327265440e+00 4.6770292440449772e+00 8.4614184709064286e+00 0 0 0
31 2 4.7152302308572160e+00 3.1718544588991904e-01 2.1862412647930602e+00 0 0 0
32 2 -1.1526035520000011e-01 8.1973955253999993e+00 4.8662714040999999e+00 0 0 0
33 2 -1.0728515737186371e-01 7.2084145653242508e+00 7.5112078184691882e+00 0 0 0
34 2 -1.4570998013335723e-01 3.6458635321573318e+00 1.2321681037828640e+00 0 0 0
35 2 -1.1526035999999999e-01 2.6549085469999998e+00 3.8875854175000000e+00 0 0 0
36 2 -1.1526036000000002e-01 1.5437638330000001e+00 6.8236433772999998e+00 0 0 0
37 2 7.8514984315595804e+00 6.7344630499392588e-01 1.5334836774887362e+00 0 0 0
38 2 3.0627124019000003e+00 8.5918015280999995e+00 3.8966773981000000e+00 0 0 0
39 2 3.0627124019000007e+00 7.4806568139999996e+00 6.8327353579999999e+00 0 0 0
40 2 3.0629573992943615e+00 3.0005285616804080e+00 3.2192484972714150e+00 0 0 0
41 2 3.0627124067000002e+00 1.9381698355999999e+00 5.8540493713000004e+00 0 0 0
42 2 3.0586995682338829e+00 8.3286393596933372e-01 8.3308536095503101e+00 0 0 0
43 2 -1.7264925981000001e+00 6.3761303915000003e+00 1.9393054247999999e+00 0 0 0
44 2 -1.7264925981000010e+00 5.2649856774000003e+00 4.8753633847000000e+00 0 0 0
45 2 -1.7894609286566592e+00 3.6051161967560335e+00 7.5759644477419776e+00 0 0 0
46 2 1.4514801685000001e+00 5.9817243888000000e+00 2.9088994307999996e+00 0 0 0
47 2 1.4514801637000001e+00 4.8705796835999999e+00 5.8449573907000003e+00 0 0 0
48 2 1.7352554112793417e+00 4.3002473368117355e+00 8.6080660051362958e+00 0 0 0
49 2 1.4102355766606458e+00 3.1760850239549099e-01 2.1862847132755423e+00 0 0 0
50 2 -3.3377248315000001e+00 8.1973955253999993e+00 4.8662714040999999e+00 0 0 0
51 2 -2.9749135843378531e+00 7.1012241689836140e+00 7.6976388330986145e+00 0 0 0
52 2 6.2748980437975108e+00 3.6493062555340252e+00 1.2293536937117504e+00 0 0 0
53 2 6.2406851637000003e+00 2.6549085469999998e+00 3.8875854175000000e+00 0 0 0
54 2 6.1254093361582003e+00 1.5863498148260053e+00 6.4075817532956245e+00 0 0 0

Velocities

1 0.0000000000000000e+00 0.0000000000000000e+00 0.0000000000000000e+00
2 0.0000000000000000e+00 0.0000000000000000e+00 0.0000000000000000e+00
3 0.0000000000000000e+00 0.0000000000000000e+00 0.0000000000000000e+00
4 0.0000000000000000e+00 0.0000000000000000e+00 0.0000000000000000e+00
5 0.0000000000000000e+00 0.0000000000000000e+00 0.0000000000000000e+00
6 0.0000000000000000e+00 0.0000000000000000e+00 0.0000000000000000e+00
7 0.0000000000000000e+00 0.0000000000000000e+00 0.0000000000000000e+00
8 0.0000000000000000e+00 0.0000000000000000e+00 0.0000000000000000e+00
9 0.0000000000000000e+00 0.0000000000000000e+00 0.0000000000000000e+00
10 0.0000000000000000e+00 0.0000000000000000e+00 0.0000000000000000e+00
11 0.0000000000000000e+00 0.0000000000000000e+00 0.0000000000000000e+00
12 0.0000000000000000e+00 0.0000000000000000e+00 0.0000000000000000e+00
13 0.0000000000000000e+00 0.0000000000000000e+00 0.0000000000000000e+00
14 0.0000000000000000e+00 0.0000000000000000e+00 0.0000000000000000e+00
15 0.0000000000000000e+00 0.0000000000000000e+00 0.0000000000000000e+00
16 0.0000000000000000e+00 0.0000000000000000e+00 0.0000000000000000e+00
17 0.0000000000000000e+00 0.0000000000000000e+00 0.0000000000000000e+00
18 0.0000000000000000e+00 0.0000000000000000e+00 0.0000000000000000e+00
19 0.0000000000000000e+00 0.0000000000000000e+00 0.0000000000000000e+00
20 0.0000000000000000e+00 0.0000000000000000e+00 0.0000000000000000e+00
21 0.0000000000000000e+00 0.0000000000000000e+00 0.0000000000000000e+00
22 0.0000000000000000e+00 0.0000000000000000e+00 0.0000000000000000e+00
23 0.0000000000000000e+00 0.0000000000000000e+00 0.0000000000000000e+00
24 0.0000000000000000e+00 0.0000000000000000e+00 0.0000000000000000e+00
25 0.0000000000000000e+00 0.0000000000000000e+00 0.0000000000000000e+00
26 0.0000000000000000e+00 0.0000000000000000e+00 0.0000000000000000e+00
27 0.0000000000000000e+00 0.0000000000000000e+00 0.0000000000000000e+00
28 0.0000000000000000e+00 0.0000000000000000e+00 0.0000000000000000e+00
29 0.0000000000000000e+00 0.0000000000000000e+00 0.0000000000000000e+00
30 0.0000000000000000e+00 0.0000000000000000e+00 0.0000000000000000e+00
31 0.0000000000000000e+00 0.0000000000000000e+00 0.0000000000000000e+00
32 0.0000000000000000e+00 0.0000000000000000e+00 0.0000000000000000e+00
33 0.0000000000000000e+00 0.0000000000000000e+00 0.0000000000000000e+00
34 0.0000000000000000e+00 0.0000000000000000e+00 0.0000000000000000e+00
35 0.0000000000000000e+00 0.0000000000000000e+00 0.0000000000000000e+00
36 0.0000000000000000e+00 0.0000000000000000e+00 0.0000000000000000e+00
37 0.0000000000000000e+00 0.0000000000000000e+00 0.0000000000000000e+00
38 0.0000000000000000e+00 0.0000000000000000e+00 0.0000000000000000e+00
39 0.0000000000000000e+00 0.0000000000000000e+00 0.0000000000000000e+00
40 0.0000000000000000e+00 0.0000000000000000e+00 0.0000000000000000e+00
41 0.0000000000000000e+00 0.0000000000000000e+00 0.0000000000000000e+00
42 0.0000000000000000e+00 0.0000000000000000e+00 0.0000000000000000e+00
43 0.0000000000000000e+00 0.0000000000000000e+00 0.0000000000000000e+00
44 0.0000000000000000e+00 0.0000000000000000e+00 0.0000000000000000e+00
45 0.0000000000000000e+00 0.0000000000000000e+00 0.0000000000000000e+00
46 0.0000000000000000e+00 0.0000000000000000e+00 0.0000000000000000e+00
47 0.0000000000000000e+00 0.0000000000000000e+00 0.0000000000000000e+00
48 0.0000000000000000e+00 0.0000000000000000e+00 0.0000000000000000e+00
49 0.0000000000000000e+00 0.0000000000000000e+00 0.0000000000000000e+00
50 0.0000000000000000e+00 0.0000000000000000e+00 0.0000000000000000e+00
51 0.0000000000000000e+00 0.0000000000000000e+00 0.0000000000000000e+00
52 0.0000000000000000e+00 0.0000000000000000e+00 0.0000000000000000e+00
53 0.0000000000000000e+00 0.0000000000000000e+00 0.0000000000000000e+00
54 0.0000000000000000e+00 0.0000000000000000e+00 0.0000000000000000e+00
