  96  96   0   0
  0.2565633E+02  0.1125646E-08  0.1125646E-08  0.2174423E-08  0.5000000E-15
  1.000000000000000E-004
  CAR 
 "Millerite NiS"                         
     11.40878352    -66.18203513  301      1.43999338      1.00000000
    -66.182  0.0000E+00  0.0000E+00
    -65.923  0.0000E+00  0.0000E+00
    -65.665  0.0000E+00  0.0000E+00
    -65.406  0.0000E+00  0.0000E+00
    -65.147  0.0000E+00  0.0000E+00
    -64.889  0.0000E+00  0.0000E+00
    -64.630  0.0000E+00  0.0000E+00
    -64.372  0.0000E+00  0.0000E+00
    -64.113  0.0000E+00  0.0000E+00
    -63.854  0.0000E+00  0.0000E+00
    -63.596  0.6424E-09  0.1662E-09
    -63.337  0.4565E-04  0.1181E-04
    -63.078  0.1446E+00  0.3740E-01
    -62.820  0.2301E+02  0.5987E+01
    -62.561  0.2508E+03  0.7085E+02
    -62.302  0.4009E+03  0.1745E+03
    -62.044  0.2430E+03  0.2374E+03
    -61.785  0.1176E+03  0.2678E+03
    -61.527  0.5610E+02  0.2823E+03
    -61.268  0.1998E+02  0.2875E+03
    -61.009  0.2022E+01  0.2880E+03
    -60.751  0.1454E-01  0.2880E+03
    -60.492  0.5007E-05  0.2880E+03
    -60.233  0.7213E-10  0.2880E+03
    -59.975  0.0000E+00  0.2880E+03
    -59.716  0.0000E+00  0.2880E+03
    -59.457  0.0000E+00  0.2880E+03
    -59.199  0.0000E+00  0.2880E+03
    -58.940  0.0000E+00  0.2880E+03
    -58.682  0.0000E+00  0.2880E+03
    -58.423  0.0000E+00  0.2880E+03
    -58.164  0.0000E+00  0.2880E+03
    -57.906  0.0000E+00  0.2880E+03
    -57.647  0.0000E+00  0.2880E+03
    -57.388  0.0000E+00  0.2880E+03
    -57.130  0.0000E+00  0.2880E+03
    -56.871  0.0000E+00  0.2880E+03
    -56.613  0.0000E+00  0.2880E+03
    -56.354  0.0000E+00  0.2880E+03
    -56.095  0.0000E+00  0.2880E+03
    -55.837  0.0000E+00  0.2880E+03
    -55.578  0.0000E+00  0.2880E+03
    -55.319  0.0000E+00  0.2880E+03
    -55.061  0.0000E+00  0.2880E+03
    -54.802  0.0000E+00  0.2880E+03
    -54.543  0.0000E+00  0.2880E+03
    -54.285  0.0000E+00  0.2880E+03
    -54.026  0.0000E+00  0.2880E+03
    -53.768  0.0000E+00  0.2880E+03
    -53.509  0.0000E+00  0.2880E+03
    -53.250  0.0000E+00  0.2880E+03
    -52.992  0.0000E+00  0.2880E+03
    -52.733  0.0000E+00  0.2880E+03
    -52.474  0.0000E+00  0.2880E+03
    -52.216  0.0000E+00  0.2880E+03
    -51.957  0.0000E+00  0.2880E+03
    -51.698  0.0000E+00  0.2880E+03
    -51.440  0.0000E+00  0.2880E+03
    -51.181  0.0000E+00  0.2880E+03
    -50.923  0.0000E+00  0.2880E+03
    -50.664  0.0000E+00  0.2880E+03
    -50.405  0.0000E+00  0.2880E+03
    -50.147  0.0000E+00  0.2880E+03
    -49.888  0.0000E+00  0.2880E+03
    -49.629  0.0000E+00  0.2880E+03
    -49.371  0.0000E+00  0.2880E+03
    -49.112  0.0000E+00  0.2880E+03
    -48.853  0.0000E+00  0.2880E+03
    -48.595  0.0000E+00  0.2880E+03
    -48.336  0.0000E+00  0.2880E+03
    -48.078  0.0000E+00  0.2880E+03
    -47.819  0.0000E+00  0.2880E+03
    -47.560  0.0000E+00  0.2880E+03
    -47.302  0.0000E+00  0.2880E+03
    -47.043  0.0000E+00  0.2880E+03
    -46.784  0.0000E+00  0.2880E+03
    -46.526  0.0000E+00  0.2880E+03
    -46.267  0.0000E+00  0.2880E+03
    -46.008  0.0000E+00  0.2880E+03
    -45.750  0.0000E+00  0.2880E+03
    -45.491  0.0000E+00  0.2880E+03
    -45.233  0.0000E+00  0.2880E+03
    -44.974  0.0000E+00  0.2880E+03
    -44.715  0.0000E+00  0.2880E+03
    -44.457  0.0000E+00  0.2880E+03
    -44.198  0.0000E+00  0.2880E+03
    -43.939  0.0000E+00  0.2880E+03
    -43.681  0.0000E+00  0.2880E+03
    -43.422  0.0000E+00  0.2880E+03
    -43.163  0.0000E+00  0.2880E+03
    -42.905  0.0000E+00  0.2880E+03
    -42.646  0.0000E+00  0.2880E+03
    -42.388  0.0000E+00  0.2880E+03
    -42.129  0.0000E+00  0.2880E+03
    -41.870  0.0000E+00  0.2880E+03
    -41.612  0.0000E+00  0.2880E+03
    -41.353  0.0000E+00  0.2880E+03
    -41.094  0.0000E+00  0.2880E+03
    -40.836  0.0000E+00  0.2880E+03
    -40.577  0.0000E+00  0.2880E+03
    -40.318  0.0000E+00  0.2880E+03
    -40.060  0.0000E+00  0.2880E+03
    -39.801  0.0000E+00  0.2880E+03
    -39.543  0.0000E+00  0.2880E+03
    -39.284  0.0000E+00  0.2880E+03
    -39.025  0.0000E+00  0.2880E+03
    -38.767  0.0000E+00  0.2880E+03
    -38.508  0.0000E+00  0.2880E+03
    -38.249  0.0000E+00  0.2880E+03
    -37.991  0.0000E+00  0.2880E+03
    -37.732  0.0000E+00  0.2880E+03
    -37.473  0.0000E+00  0.2880E+03
    -37.215  0.0000E+00  0.2880E+03
    -36.956  0.0000E+00  0.2880E+03
    -36.698  0.0000E+00  0.2880E+03
    -36.439  0.0000E+00  0.2880E+03
    -36.180  0.0000E+00  0.2880E+03
    -35.922  0.0000E+00  0.2880E+03
    -35.663  0.0000E+00  0.2880E+03
    -35.404  0.0000E+00  0.2880E+03
    -35.146  0.0000E+00  0.2880E+03
    -34.887  0.0000E+00  0.2880E+03
    -34.628  0.0000E+00  0.2880E+03
    -34.370  0.0000E+00  0.2880E+03
    -34.111  0.0000E+00  0.2880E+03
    -33.853  0.0000E+00  0.2880E+03
    -33.594  0.0000E+00  0.2880E+03
    -33.335  0.0000E+00  0.2880E+03
    -33.077  0.0000E+00  0.2880E+03
    -32.818  0.0000E+00  0.2880E+03
    -32.559  0.0000E+00  0.2880E+03
    -32.301  0.0000E+00  0.2880E+03
    -32.042  0.0000E+00  0.2880E+03
    -31.783  0.0000E+00  0.2880E+03
    -31.525  0.0000E+00  0.2880E+03
    -31.266  0.0000E+00  0.2880E+03
    -31.008  0.0000E+00  0.2880E+03
    -30.749  0.0000E+00  0.2880E+03
    -30.490  0.0000E+00  0.2880E+03
    -30.232  0.0000E+00  0.2880E+03
    -29.973  0.0000E+00  0.2880E+03
    -29.714  0.0000E+00  0.2880E+03
    -29.456  0.0000E+00  0.2880E+03
    -29.197  0.0000E+00  0.2880E+03
    -28.938  0.0000E+00  0.2880E+03
    -28.680  0.0000E+00  0.2880E+03
    -28.421  0.0000E+00  0.2880E+03
    -28.163  0.0000E+00  0.2880E+03
    -27.904  0.0000E+00  0.2880E+03
    -27.645  0.0000E+00  0.2880E+03
    -27.387  0.0000E+00  0.2880E+03
    -27.128  0.0000E+00  0.2880E+03
    -26.869  0.0000E+00  0.2880E+03
    -26.611  0.0000E+00  0.2880E+03
    -26.352  0.0000E+00  0.2880E+03
    -26.093  0.0000E+00  0.2880E+03
    -25.835  0.0000E+00  0.2880E+03
    -25.576  0.0000E+00  0.2880E+03
    -25.318  0.0000E+00  0.2880E+03
    -25.059  0.0000E+00  0.2880E+03
    -24.800  0.0000E+00  0.2880E+03
    -24.542  0.0000E+00  0.2880E+03
    -24.283  0.0000E+00  0.2880E+03
    -24.024  0.0000E+00  0.2880E+03
    -23.766  0.0000E+00  0.2880E+03
    -23.507  0.0000E+00  0.2880E+03
    -23.248  0.0000E+00  0.2880E+03
    -22.990  0.0000E+00  0.2880E+03
    -22.731  0.0000E+00  0.2880E+03
    -22.473  0.0000E+00  0.2880E+03
    -22.214  0.0000E+00  0.2880E+03
    -21.955  0.0000E+00  0.2880E+03
    -21.697  0.0000E+00  0.2880E+03
    -21.438  0.0000E+00  0.2880E+03
    -21.179  0.0000E+00  0.2880E+03
    -20.921  0.0000E+00  0.2880E+03
    -20.662  0.0000E+00  0.2880E+03
    -20.403  0.0000E+00  0.2880E+03
    -20.145  0.0000E+00  0.2880E+03
    -19.886  0.0000E+00  0.2880E+03
    -19.628  0.0000E+00  0.2880E+03
    -19.369  0.0000E+00  0.2880E+03
    -19.110  0.0000E+00  0.2880E+03
    -18.852  0.0000E+00  0.2880E+03
    -18.593  0.0000E+00  0.2880E+03
    -18.334  0.0000E+00  0.2880E+03
    -18.076  0.0000E+00  0.2880E+03
    -17.817  0.0000E+00  0.2880E+03
    -17.558  0.0000E+00  0.2880E+03
    -17.300  0.0000E+00  0.2880E+03
    -17.041  0.0000E+00  0.2880E+03
    -16.783  0.0000E+00  0.2880E+03
    -16.524  0.0000E+00  0.2880E+03
    -16.265  0.0000E+00  0.2880E+03
    -16.007  0.0000E+00  0.2880E+03
    -15.748  0.0000E+00  0.2880E+03
    -15.489  0.0000E+00  0.2880E+03
    -15.231  0.0000E+00  0.2880E+03
    -14.972  0.3932E-10  0.2880E+03
    -14.713  0.2519E-05  0.2880E+03
    -14.455  0.6388E-02  0.2880E+03
    -14.196  0.7191E+00  0.2882E+03
    -13.938  0.4656E+01  0.2894E+03
    -13.679  0.2869E+01  0.2901E+03
    -13.420  0.7610E+01  0.2921E+03
    -13.162  0.2121E+02  0.2976E+03
    -12.903  0.2562E+02  0.3042E+03
    -12.644  0.3439E+02  0.3131E+03
    -12.386  0.2963E+02  0.3208E+03
    -12.127  0.4696E+02  0.3329E+03
    -11.868  0.5857E+02  0.3481E+03
    -11.610  0.3661E+02  0.3575E+03
    -11.351  0.1703E+02  0.3619E+03
    -11.093  0.1175E+02  0.3650E+03
    -10.834  0.1922E+02  0.3699E+03
    -10.575  0.2139E+02  0.3755E+03
    -10.317  0.1330E+02  0.3789E+03
    -10.058  0.1612E+02  0.3831E+03
     -9.799  0.3462E+01  0.3840E+03
     -9.541  0.5689E-01  0.3840E+03
     -9.282  0.4880E-04  0.3840E+03
     -9.023  0.1819E-08  0.3840E+03
     -8.765  0.2576E-14  0.3840E+03
     -8.506  0.0000E+00  0.3840E+03
     -8.248  0.0000E+00  0.3840E+03
     -7.989  0.0000E+00  0.3840E+03
     -7.730  0.0000E+00  0.3840E+03
     -7.472  0.0000E+00  0.3840E+03
     -7.213  0.0000E+00  0.3840E+03
     -6.954  0.1717E-14  0.3840E+03
     -6.696  0.1762E-08  0.3840E+03
     -6.437  0.6251E-04  0.3840E+03
     -6.178  0.9129E-01  0.3840E+03
     -5.920  0.6381E+01  0.3857E+03
     -5.661  0.2902E+02  0.3932E+03
     -5.403  0.1788E+02  0.3978E+03
     -5.144  0.2667E+02  0.4047E+03
     -4.885  0.4681E+02  0.4168E+03
     -4.627  0.5933E+02  0.4322E+03
     -4.368  0.6598E+02  0.4492E+03
     -4.109  0.3789E+02  0.4590E+03
     -3.851  0.4304E+02  0.4702E+03
     -3.592  0.6667E+02  0.4874E+03
     -3.333  0.6590E+02  0.5044E+03
     -3.075  0.8825E+02  0.5273E+03
     -2.816  0.8740E+02  0.5499E+03
     -2.558  0.8178E+02  0.5710E+03
     -2.299  0.1051E+03  0.5982E+03
     -2.040  0.6907E+02  0.6161E+03
     -1.782  0.4481E+02  0.6276E+03
     -1.523  0.6527E+02  0.6445E+03
     -1.264  0.8374E+02  0.6662E+03
     -1.006  0.1055E+03  0.6935E+03
     -0.747  0.1327E+03  0.7278E+03
     -0.488  0.1634E+03  0.7701E+03
     -0.230  0.1938E+03  0.8202E+03
      0.029  0.2260E+03  0.8786E+03
      0.287  0.2059E+03  0.9319E+03
      0.546  0.1546E+03  0.9719E+03
      0.805  0.1197E+03  0.1003E+04
      1.063  0.9151E+02  0.1026E+04
      1.322  0.7798E+02  0.1047E+04
      1.581  0.7598E+02  0.1066E+04
      1.839  0.6343E+02  0.1083E+04
      2.098  0.7610E+02  0.1102E+04
      2.357  0.8161E+02  0.1124E+04
      2.615  0.6926E+02  0.1141E+04
      2.874  0.3535E+02  0.1151E+04
      3.132  0.6024E+01  0.1152E+04
      3.391  0.5502E+01  0.1154E+04
      3.650  0.7344E+01  0.1155E+04
      3.908  0.2675E+01  0.1156E+04
      4.167  0.7106E+01  0.1158E+04
      4.426  0.1385E+02  0.1162E+04
      4.684  0.1566E+02  0.1166E+04
      4.943  0.1891E+02  0.1170E+04
      5.202  0.2060E+02  0.1176E+04
      5.460  0.1705E+02  0.1180E+04
      5.719  0.2107E+02  0.1186E+04
      5.977  0.2656E+02  0.1193E+04
      6.236  0.3645E+02  0.1202E+04
      6.495  0.3395E+02  0.1211E+04
      6.753  0.3201E+02  0.1219E+04
      7.012  0.4239E+02  0.1230E+04
      7.271  0.4842E+02  0.1243E+04
      7.529  0.4312E+02  0.1254E+04
      7.788  0.6002E+02  0.1269E+04
      8.047  0.3817E+02  0.1279E+04
      8.305  0.3555E+01  0.1280E+04
      8.564  0.2628E-01  0.1280E+04
      8.822  0.1032E-04  0.1280E+04
      9.081  0.1770E-09  0.1280E+04
      9.340  0.0000E+00  0.1280E+04
      9.598  0.0000E+00  0.1280E+04
      9.857  0.0000E+00  0.1280E+04
     10.116  0.0000E+00  0.1280E+04
     10.374  0.0000E+00  0.1280E+04
     10.633  0.0000E+00  0.1280E+04
     10.892  0.0000E+00  0.1280E+04
     11.150  0.0000E+00  0.1280E+04
     11.409  0.0000E+00  0.1280E+04
