"Millerite NiS"                         
           1
     6.278560    0.000000    0.000000
     2.092853   11.060196    0.000000
     0.000000    0.000000   29.156820
   Ty   Ty
  48  48
Direct configuration=     1
   0.25630944  0.01645859  0.15239349
   0.25630944  0.01645859  0.48090702
   0.00630944  0.26645858  0.31665025
   0.97475746  0.27038165  0.63780553
   0.20998143  0.02630079  0.07045601
   0.25630944  0.01645859  0.39411177
   0.00630944  0.26645858  0.22985501
   0.00630944  0.26645858  0.55836854
   0.18422054  0.22499862  0.11980513
   0.19025794  0.21461308  0.43750940
   0.44025794  0.46461308  0.27325263
   0.45965625  0.47356735  0.59126326
   0.75630944  0.01645859  0.15239349
   0.75630944  0.01645859  0.48090702
   0.50630944  0.26645858  0.31665025
   0.54414758  0.26314939  0.63697347
   0.81098002  0.02390482  0.07146915
   0.75630944  0.01645859  0.39411177
   0.50630944  0.26645858  0.22985501
   0.50630944  0.26645858  0.55836854
   0.70496622  0.22892274  0.12124475
   0.69025794  0.21461308  0.43750940
   0.94025794  0.46461308  0.27325263
   0.92258586  0.47194996  0.59371635
   0.25630944  0.51645859  0.15239349
   0.25630944  0.51645859  0.48090702
   0.00630944  0.76645858  0.31665025
   0.01538504  0.76202972  0.63817323
   0.25630944  0.51645859  0.06559824
   0.25630944  0.51645859  0.39411177
   0.00630944  0.76645858  0.22985501
   0.00630944  0.76645858  0.55836854
   0.19025794  0.71461308  0.10899586
   0.19025794  0.71461308  0.43750940
   0.44025794  0.96461308  0.27325263
   0.44025794  0.96461308  0.60176617
   0.75630944  0.51645859  0.15239349
   0.75630944  0.51645859  0.48090702
   0.50630944  0.76645858  0.31665025
   0.51313754  0.76198014  0.63818481
   0.79450179  0.51459377  0.06968517
   0.75630944  0.51645859  0.39411177
   0.50630944  0.76645858  0.22985501
   0.50630944  0.76645858  0.55836854
   0.69025794  0.71461308  0.10899586
   0.69025794  0.71461308  0.43750940
   0.94025794  0.96461308  0.27325263
   0.94025794  0.96461308  0.60176617
   0.46840410  0.16661759  0.38224849
   0.21840410  0.41661758  0.21799173
   0.21840410  0.41661758  0.54650526
   0.46840410  0.16661759  0.16425677
   0.46840410  0.16661759  0.49277030
   0.03839008  0.45767270  0.02348246
   0.21840410  0.41661758  0.32851354
   0.05251161  0.41429508  0.10899586
   0.05251161  0.41429508  0.43750940
   0.30251160  0.16429509  0.27325263
   0.30251160  0.16429509  0.60176617
   0.95627239  0.17731375  0.07207938
   0.96840410  0.16661759  0.38224849
   0.71840410  0.41661758  0.21799173
   0.71840410  0.41661758  0.54650526
   0.96840410  0.16661759  0.16425677
   0.96840410  0.16661759  0.49277030
   0.71840410  0.41661758  0.32851354
   0.70595907  0.40682143  0.64041652
   0.55251161  0.41429508  0.10899586
   0.55251161  0.41429508  0.43750940
   0.80251160  0.16429509  0.27325263
   0.80251160  0.16429509  0.60176617
   0.47523988  0.63668003  0.06903636
   0.46840411  0.66661759  0.38224849
   0.21840411  0.91661758  0.21799173
   0.21840411  0.91661758  0.54650526
   0.46840411  0.66661759  0.16425677
   0.46840411  0.66661759  0.49277030
   0.02410850  0.97638949  0.02007756
   0.21840411  0.91661758  0.32851354
   0.21763763  0.89143927  0.64227515
   0.05251161  0.91429508  0.10899586
   0.05251161  0.91429508  0.43750940
   0.30251161  0.66429509  0.27325263
   0.30251161  0.66429509  0.60176617
   0.96442096  0.65999278  0.06667589
   0.96840411  0.66661759  0.38224849
   0.71840411  0.91661758  0.21799173
   0.71840411  0.91661758  0.54650526
   0.96840411  0.66661759  0.16425677
   0.96840411  0.66661759  0.49277030
   0.71840411  0.91661758  0.32851354
   0.71783768  0.89057539  0.64215471
   0.55251161  0.91429508  0.10899586
   0.55251161  0.91429508  0.43750940
   0.80251161  0.66429509  0.27325263
   0.80251161  0.66429509  0.60176617
