       N       E                     dE             d eps       ncg     rms          rms(c)
DAV:   1     0.967142280462E+04    0.96714E+04   -0.50820E+05  1184   0.163E+03
DAV:   2     0.592104990171E+03   -0.90793E+04   -0.87568E+04  1016   0.520E+02
DAV:   3    -0.341201337570E+03   -0.93331E+03   -0.87868E+03  1096   0.178E+02
DAV:   4    -0.401450424800E+03   -0.60249E+02   -0.59477E+02  1112   0.400E+01
DAV:   5    -0.403699209026E+03   -0.22488E+01   -0.22452E+01  1240   0.843E+00    0.820E+01
DAV:   6    -0.489698911335E+03   -0.86000E+02   -0.96438E+02  1144   0.116E+02    0.158E+02
DAV:   7    -0.372429890974E+03    0.11727E+03   -0.17238E+02  1160   0.616E+01    0.624E+01
DAV:   8    -0.473477364371E+03   -0.10105E+03   -0.14049E+02  1312   0.872E+01    0.169E+02
DAV:   9    -0.368360534936E+03    0.10512E+03   -0.11579E+02  1200   0.471E+01    0.465E+01
DAV:  10    -0.385377768668E+03   -0.17017E+02   -0.51662E+01  1464   0.489E+01    0.114E+02
DAV:  11    -0.378078549946E+03    0.72992E+01   -0.54678E+01  1264   0.296E+01    0.674E+01
DAV:  12    -0.364032724855E+03    0.14046E+02   -0.28126E+01  1320   0.336E+01    0.423E+01
DAV:  13    -0.363263844505E+03    0.76888E+00   -0.31042E+01  1272   0.215E+01    0.347E+01
DAV:  14    -0.359181042352E+03    0.40828E+01   -0.80864E+00  1216   0.194E+01    0.274E+01
DAV:  15    -0.357902701633E+03    0.12783E+01   -0.64482E+00  1248   0.123E+01    0.225E+01
DAV:  16    -0.356143480488E+03    0.17592E+01   -0.16835E+00  1184   0.746E+00    0.185E+01
DAV:  17    -0.355755181389E+03    0.38830E+00   -0.13848E+00  1320   0.782E+00    0.181E+01
DAV:  18    -0.354806538620E+03    0.94864E+00   -0.92361E-01  1352   0.687E+00    0.141E+01
DAV:  19    -0.354338810135E+03    0.46773E+00   -0.50583E-01  1304   0.496E+00    0.118E+01
DAV:  20    -0.353946226789E+03    0.39258E+00   -0.31898E-01  1320   0.358E+00    0.967E+00
DAV:  21    -0.353843320646E+03    0.10291E+00   -0.27837E-01  1312   0.225E+00    0.868E+00
DAV:  22    -0.353702686017E+03    0.14063E+00   -0.16842E-01  1312   0.237E+00    0.696E+00
DAV:  23    -0.353631596473E+03    0.71090E-01   -0.13061E-01  1320   0.233E+00    0.630E+00
DAV:  24    -0.353530154402E+03    0.10144E+00   -0.16337E-01  1376   0.239E+00    0.445E+00
DAV:  25    -0.353484411761E+03    0.45743E-01   -0.14146E-01  1312   0.246E+00    0.337E+00
DAV:  26    -0.353474282093E+03    0.10130E-01   -0.81020E-02  1296   0.155E+00    0.273E+00
DAV:  27    -0.353461257292E+03    0.13025E-01   -0.54884E-02  1272   0.130E+00    0.204E+00
DAV:  28    -0.353469561645E+03   -0.83044E-02   -0.43007E-02  1256   0.122E+00    0.248E+00
DAV:  29    -0.353453782312E+03    0.15779E-01   -0.29885E-02  1216   0.103E+00    0.149E+00
DAV:  30    -0.353454852277E+03   -0.10700E-02   -0.19431E-02  1296   0.883E-01    0.170E+00
DAV:  31    -0.353447194244E+03    0.76580E-02   -0.16428E-02  1200   0.649E-01    0.961E-01
DAV:  32    -0.353446060804E+03    0.11334E-02   -0.51149E-03  1288   0.456E-01    0.717E-01
DAV:  33    -0.353445362601E+03    0.69820E-03   -0.53194E-03  1264   0.359E-01    0.536E-01
DAV:  34    -0.353444976679E+03    0.38592E-03   -0.22372E-03  1256   0.309E-01    0.391E-01
DAV:  35    -0.353445258240E+03   -0.28156E-03   -0.12249E-03  1048   0.213E-01    0.329E-01
DAV:  36    -0.353445173025E+03    0.85215E-04   -0.62833E-04   912   0.197E-01
   1 F= -.35344517E+03 E0= -.35291002E+03  d E =-.107031E+01
