       N       E                     dE             d eps       ncg     rms          rms(c)
DAV:   1     0.893381021816E+04    0.89338E+04   -0.51536E+05  1200   0.154E+03
DAV:   2     0.496887495860E+03   -0.84369E+04   -0.81493E+04  1040   0.490E+02
DAV:   3    -0.358929710280E+03   -0.85582E+03   -0.81049E+03  1152   0.159E+02
DAV:   4    -0.410028384818E+03   -0.51099E+02   -0.50461E+02  1168   0.354E+01
DAV:   5    -0.411668258439E+03   -0.16399E+01   -0.16375E+01  1224   0.678E+00    0.836E+01
DAV:   6    -0.531825485604E+03   -0.12016E+03   -0.11196E+03  1184   0.129E+02    0.181E+02
DAV:   7    -0.389342994735E+03    0.14248E+03   -0.20632E+02  1144   0.624E+01    0.763E+01
DAV:   8    -0.390981463547E+03   -0.16385E+01   -0.18870E+02  1368   0.794E+01    0.966E+01
DAV:   9    -0.372907933578E+03    0.18074E+02   -0.11205E+02  1256   0.545E+01    0.600E+01
DAV:  10    -0.381929149933E+03   -0.90212E+01   -0.54719E+01  1384   0.466E+01    0.105E+02
DAV:  11    -0.374317817600E+03    0.76113E+01   -0.48310E+01  1328   0.284E+01    0.668E+01
DAV:  12    -0.365750425476E+03    0.85674E+01   -0.32578E+01  1416   0.283E+01    0.358E+01
DAV:  13    -0.362035052595E+03    0.37154E+01   -0.17737E+01  1320   0.270E+01    0.307E+01
DAV:  14    -0.360919154655E+03    0.11159E+01   -0.81322E+00  1344   0.191E+01    0.298E+01
DAV:  15    -0.359261442311E+03    0.16577E+01   -0.53710E+00  1256   0.128E+01    0.223E+01
DAV:  16    -0.357984058448E+03    0.12774E+01   -0.19431E+00  1280   0.970E+00    0.168E+01
DAV:  17    -0.357768605142E+03    0.21545E+00   -0.20553E+00  1304   0.902E+00    0.176E+01
DAV:  18    -0.356700655976E+03    0.10679E+01   -0.24390E+00  1328   0.818E+00    0.119E+01
DAV:  19    -0.356466062260E+03    0.23459E+00   -0.81957E-01  1336   0.556E+00    0.101E+01
DAV:  20    -0.356140005653E+03    0.32606E+00   -0.47326E-01  1312   0.458E+00    0.612E+00
DAV:  21    -0.356098315884E+03    0.41690E-01   -0.24536E-01  1320   0.330E+00    0.541E+00
DAV:  22    -0.356054495575E+03    0.43820E-01   -0.16351E-01  1264   0.236E+00    0.420E+00
DAV:  23    -0.356062178185E+03   -0.76826E-02   -0.16320E-01  1272   0.289E+00    0.448E+00
DAV:  24    -0.356037146638E+03    0.25032E-01   -0.16654E-01  1184   0.272E+00    0.351E+00
DAV:  25    -0.356041075917E+03   -0.39293E-02   -0.14497E-01  1280   0.264E+00    0.360E+00
DAV:  26    -0.356024159583E+03    0.16916E-01   -0.10112E-01  1296   0.180E+00    0.327E+00
DAV:  27    -0.356002113880E+03    0.22046E-01   -0.45064E-02  1248   0.121E+00    0.198E+00
DAV:  28    -0.356002297854E+03   -0.18397E-03   -0.20674E-02  1312   0.923E-01    0.197E+00
DAV:  29    -0.355995192542E+03    0.71053E-02   -0.14721E-02  1344   0.785E-01    0.152E+00
DAV:  30    -0.355991934854E+03    0.32577E-02   -0.11801E-02  1328   0.737E-01    0.131E+00
DAV:  31    -0.355987337855E+03    0.45970E-02   -0.82568E-03  1368   0.548E-01    0.755E-01
DAV:  32    -0.355987337440E+03    0.41464E-06   -0.45161E-03  1296   0.436E-01    0.709E-01
DAV:  33    -0.355986635089E+03    0.70235E-03   -0.27327E-03  1192   0.299E-01    0.507E-01
DAV:  34    -0.355986538601E+03    0.96488E-04   -0.16852E-03  1176   0.296E-01    0.425E-01
DAV:  35    -0.355986413696E+03    0.12491E-03   -0.11379E-03  1016   0.220E-01    0.277E-01
DAV:  36    -0.355986538664E+03   -0.12497E-03   -0.71310E-04   968   0.187E-01    0.177E-01
DAV:  37    -0.355987037607E+03   -0.49894E-03   -0.47799E-04   816   0.145E-01    0.197E-01
DAV:  38    -0.355987203093E+03   -0.16549E-03   -0.28913E-04   648   0.124E-01    0.131E-01
DAV:  39    -0.355987705264E+03   -0.50217E-03   -0.35994E-04   720   0.116E-01    0.154E-01
DAV:  40    -0.355988055466E+03   -0.35020E-03   -0.22113E-04   592   0.978E-02    0.974E-02
DAV:  41    -0.355988342634E+03   -0.28717E-03   -0.11453E-04   608   0.747E-02    0.109E-01
DAV:  42    -0.355988831367E+03   -0.48873E-03   -0.13140E-04   624   0.616E-02    0.644E-02
DAV:  43    -0.355989064194E+03   -0.23283E-03   -0.90014E-05   608   0.562E-02    0.506E-02
DAV:  44    -0.355989636896E+03   -0.57270E-03   -0.10651E-04   640   0.494E-02    0.662E-02
DAV:  45    -0.355989899399E+03   -0.26250E-03   -0.91888E-05   600   0.541E-02    0.426E-02
DAV:  46    -0.355990123592E+03   -0.22419E-03   -0.58014E-05   616   0.299E-02    0.443E-02
DAV:  47    -0.355990192483E+03   -0.68891E-04   -0.39199E-05   592   0.281E-02
   1 F= -.35599019E+03 E0= -.35533185E+03  d E =-.131669E+01
