LAMMPS data file via write_data, version 5 Jun 2019, timestep = 56

72 atoms
2 atom types

0.0000000000000000e+00 1.6884694054200001e+01 xlo xhi
0.0000000000000000e+00 9.5784099999999999e+00 ylo yhi
0.0000000000000000e+00 1.6169087119699999e+01 zlo zhi
0.0000000000000000e+00 0.0000000000000000e+00 0.0000000000000000e+00 xy xz yz

Masses

1 58.71
2 32.06

Atoms # atomic

1 1 1.3170843208000003e+01 1.3917138258999999e+00 1.5708038051000000e+00 0 0 0
2 1 1.3510012000479220e+01 1.3931881752120208e+00 4.2414822367999596e+00 0 0 0
3 1 3.6611171351000071e+00 6.1740302594827936e+00 1.1737200590964776e+00 0 0 0
4 1 5.0203308784000003e+00 6.1809188259000001e+00 3.1130755905000025e+00 0 0 0
5 1 6.5387195452168037e+00 1.5678438125499277e+00 1.6837377563409315e+00 0 0 0
6 1 7.9317247696999997e+00 1.3917138258999999e+00 3.6271661856000001e+00 0 0 0
7 1 1.6082237116200002e+01 6.1809188259000001e+00 2.0848944002000001e+00 0 0 0
8 1 1.6674687629826749e+01 6.1808829183674714e+00 4.8711844122986374e+00 0 0 0
9 1 2.1089369701999998e+00 1.3917138258999999e+00 2.5989849953999999e+00 0 0 0
10 1 1.8302450276532607e+00 1.3913931057828481e+00 4.9393567564094800e+00 0 0 0
11 1 9.3394913837933000e+00 6.7467361288759520e+00 2.0844483419234279e+00 0 0 0
12 1 1.0740144382227587e+01 6.1190868744873219e+00 3.8936499014860679e+00 0 0 0
13 1 1.5370069562433361e+01 4.3687138850725768e-02 1.5217079892704137e+00 0 0 0
14 1 1.5935555170574066e+01 1.1952059313916105e-01 4.0108331059346467e+00 0 0 0
15 1 7.1737451382000001e+00 4.9155821296999997e+00 2.7055981349000024e+00 0 0 0
16 1 7.8975946474013643e+00 4.4307056171458417e+00 4.9753215027081490e+00 0 0 0
17 1 1.0268375610265572e+01 8.9458379569423467e+00 1.0337162425451238e+00 0 -1 0
18 1 1.0085139046400000e+01 1.2637712970000001e-01 3.2196887301000001e+00 0 0 0
19 1 1.3509573217999999e+00 4.9155821296999997e+00 1.6774169447000000e+00 0 0 0
20 1 1.9136654521169727e+00 4.8296492240109528e+00 4.4222426451620827e+00 0 0 0
21 1 4.2623512300000002e+00 1.2637712970000001e-01 2.1915075397999999e+00 0 0 0
22 1 4.9306640854860184e+00 9.3309803490451380e+00 4.5724060917536180e+00 0 -1 0
23 1 1.3048579633475795e+01 4.1395429132355979e+00 1.5423081022821175e+00 0 0 0
24 1 1.2996532937700001e+01 4.9155821296999997e+00 3.7337793091000018e+00 0 0 0
25 1 1.5369139449611588e+01 2.7413975269003426e+00 1.5179941187046089e+00 0 0 0
26 1 1.5936526580795430e+01 2.6619761956292831e+00 4.0109367893611951e+00 0 0 0
27 1 7.1737451382000001e+00 7.4462555221000031e+00 2.7055981349000024e+00 0 0 0
28 1 7.8982466442426693e+00 7.9318728680658444e+00 4.9663455618408499e+00 0 0 0
29 1 8.9430696993431216e+00 1.4135883055926937e+00 1.0741640741244158e+00 0 0 0
30 1 1.0085139046400000e+01 2.6570505221000000e+00 3.2196887301000001e+00 0 0 0
31 1 1.3509573217999999e+00 7.4462555221000031e+00 1.6774169447000000e+00 0 0 0
32 1 1.9130514847632789e+00 7.5323880734437596e+00 4.4222315841659663e+00 0 0 0
33 1 4.2623512300000002e+00 2.6570505221000000e+00 2.1915075397999999e+00 0 0 0
34 1 4.9392286597017856e+00 3.0450045625285393e+00 4.5537970858779300e+00 0 0 0
35 1 1.2925460965809808e+01 8.3208090017706944e+00 1.5746672719139299e+00 0 0 0
36 1 1.3129934957319916e+01 7.2913163601169071e+00 3.7508195387453722e+00 0 0 0
37 2 1.6750615905823981e+01 1.3903498568756392e+00 5.4197133902831087e+00 -1 0 0
38 2 1.6740519096100002e+01 1.3917138258999999e+00 2.5704529594999999e+00 0 0 0
39 2 7.6378282304811593e+00 6.1701149671518625e+00 1.1407424400263708e+00 0 0 0
40 2 8.5900067496000005e+00 6.1809188259000001e+00 4.1127247450000004e+00 0 0 0
41 2 1.0917731279800000e+01 1.3917138258999999e+00 1.5422717854000001e+00 0 0 0
42 2 1.1448956082152762e+01 1.4113935899825643e+00 4.2310567136837030e+00 0 0 0
43 2 1.9100425623661912e+00 6.1808389447213639e+00 1.5599071825518473e-01 0 0 0
44 2 2.7672189501000002e+00 6.1809188259000001e+00 3.0845435547000002e+00 0 0 0
45 2 1.5463457496356059e+00 6.1808999442679635e+00 5.9189056669585423e+00 0 0 0
46 2 4.7929988968737289e+00 1.3901465030545430e+00 6.5577825914011612e-01 0 0 0
47 2 5.6786128413999997e+00 1.3917138258999999e+00 3.5986341498000001e+00 0 0 0
48 2 1.3829125188000001e+01 6.1809188259000001e+00 2.0563623806000000e+00 0 0 0
49 2 1.4632466092072123e+01 6.0407880627603880e+00 4.5653715762336189e+00 0 0 0
50 2 1.3784017847958905e+01 2.8246537256892750e+00 2.0345798367991830e-01 0 0 0
51 2 1.3998442232200000e+01 3.0029460640000001e+00 3.0893194665000001e+00 0 0 0
52 2 5.0629014314518832e+00 7.7403106837917326e+00 1.7219606511986567e+00 0 0 0
53 2 5.9454790692581803e+00 7.5749018990821302e+00 4.4632130036188524e+00 0 0 0
54 2 8.1756544158000004e+00 3.0029460640000001e+00 2.0611382762000026e+00 0 0 0
55 2 8.9292057378477399e+00 2.7251020976685734e+00 4.9207725846649861e+00 0 0 0
56 2 2.5142086099999999e-02 7.7921510639999996e+00 3.6034100616000027e+00 0 0 0
57 2 1.6342138056591747e+01 7.8674005656213559e+00 9.0728292303932934e-01 0 0 0
58 2 2.3619902802948092e+00 3.0854612651338162e+00 1.4007644652585183e+00 0 0 0
59 2 2.9365359774000002e+00 3.0029460640000001e+00 4.1175006406000003e+00 0 0 0
60 2 1.1087048324000000e+01 7.7921510639999996e+00 2.5752288713000002e+00 0 0 0
61 2 5.0869498481834929e+00 4.6157946250459085e+00 1.7254826685339790e+00 0 0 0
62 2 5.9558715960477642e+00 4.8004103211678109e+00 4.4620628778615092e+00 0 0 0
63 2 1.3789279328024826e+01 9.5401293593433945e+00 1.9998298355351163e-01 0 0 0
64 2 1.3998442232200000e+01 9.3588915877000023e+00 3.0893194665000001e+00 0 0 0
65 2 2.5142086099999999e-02 4.5696865876999997e+00 3.6034100616000027e+00 0 0 0
66 2 1.6338995012311049e+01 4.4973300920686441e+00 9.0420070354155169e-01 0 0 0
67 2 8.1756544158000004e+00 9.3588915877000023e+00 2.0611382762000026e+00 0 0 0
68 2 8.9196251912383868e+00 6.9217469645135921e-02 4.9397885155811769e+00 0 1 0
69 2 1.1087048324000000e+01 4.5696865876999997e+00 2.5752288713000002e+00 0 0 0
70 2 1.2224822822279121e+01 6.1435406941090669e+00 5.2404178640083865e+00 0 0 0
71 2 2.3640886865723818e+00 9.2766645214804218e+00 1.4019676626231468e+00 0 0 0
72 2 2.9365359774000002e+00 9.3588915877000023e+00 4.1175006406000003e+00 0 0 0

Velocities

1 0.0000000000000000e+00 0.0000000000000000e+00 0.0000000000000000e+00
2 0.0000000000000000e+00 0.0000000000000000e+00 0.0000000000000000e+00
3 0.0000000000000000e+00 0.0000000000000000e+00 0.0000000000000000e+00
4 0.0000000000000000e+00 0.0000000000000000e+00 0.0000000000000000e+00
5 0.0000000000000000e+00 0.0000000000000000e+00 0.0000000000000000e+00
6 0.0000000000000000e+00 0.0000000000000000e+00 0.0000000000000000e+00
7 0.0000000000000000e+00 0.0000000000000000e+00 0.0000000000000000e+00
8 0.0000000000000000e+00 0.0000000000000000e+00 0.0000000000000000e+00
9 0.0000000000000000e+00 0.0000000000000000e+00 0.0000000000000000e+00
10 0.0000000000000000e+00 0.0000000000000000e+00 0.0000000000000000e+00
11 0.0000000000000000e+00 0.0000000000000000e+00 0.0000000000000000e+00
12 0.0000000000000000e+00 0.0000000000000000e+00 0.0000000000000000e+00
13 0.0000000000000000e+00 0.0000000000000000e+00 0.0000000000000000e+00
14 0.0000000000000000e+00 0.0000000000000000e+00 0.0000000000000000e+00
15 0.0000000000000000e+00 0.0000000000000000e+00 0.0000000000000000e+00
16 0.0000000000000000e+00 0.0000000000000000e+00 0.0000000000000000e+00
17 0.0000000000000000e+00 0.0000000000000000e+00 0.0000000000000000e+00
18 0.0000000000000000e+00 0.0000000000000000e+00 0.0000000000000000e+00
19 0.0000000000000000e+00 0.0000000000000000e+00 0.0000000000000000e+00
20 0.0000000000000000e+00 0.0000000000000000e+00 0.0000000000000000e+00
21 0.0000000000000000e+00 0.0000000000000000e+00 0.0000000000000000e+00
22 0.0000000000000000e+00 0.0000000000000000e+00 0.0000000000000000e+00
23 0.0000000000000000e+00 0.0000000000000000e+00 0.0000000000000000e+00
24 0.0000000000000000e+00 0.0000000000000000e+00 0.0000000000000000e+00
25 0.0000000000000000e+00 0.0000000000000000e+00 0.0000000000000000e+00
26 0.0000000000000000e+00 0.0000000000000000e+00 0.0000000000000000e+00
27 0.0000000000000000e+00 0.0000000000000000e+00 0.0000000000000000e+00
28 0.0000000000000000e+00 0.0000000000000000e+00 0.0000000000000000e+00
29 0.0000000000000000e+00 0.0000000000000000e+00 0.0000000000000000e+00
30 0.0000000000000000e+00 0.0000000000000000e+00 0.0000000000000000e+00
31 0.0000000000000000e+00 0.0000000000000000e+00 0.0000000000000000e+00
32 0.0000000000000000e+00 0.0000000000000000e+00 0.0000000000000000e+00
33 0.0000000000000000e+00 0.0000000000000000e+00 0.0000000000000000e+00
34 0.0000000000000000e+00 0.0000000000000000e+00 0.0000000000000000e+00
35 0.0000000000000000e+00 0.0000000000000000e+00 0.0000000000000000e+00
36 0.0000000000000000e+00 0.0000000000000000e+00 0.0000000000000000e+00
37 0.0000000000000000e+00 0.0000000000000000e+00 0.0000000000000000e+00
38 0.0000000000000000e+00 0.0000000000000000e+00 0.0000000000000000e+00
39 0.0000000000000000e+00 0.0000000000000000e+00 0.0000000000000000e+00
40 0.0000000000000000e+00 0.0000000000000000e+00 0.0000000000000000e+00
41 0.0000000000000000e+00 0.0000000000000000e+00 0.0000000000000000e+00
42 0.0000000000000000e+00 0.0000000000000000e+00 0.0000000000000000e+00
43 0.0000000000000000e+00 0.0000000000000000e+00 0.0000000000000000e+00
44 0.0000000000000000e+00 0.0000000000000000e+00 0.0000000000000000e+00
45 0.0000000000000000e+00 0.0000000000000000e+00 0.0000000000000000e+00
46 0.0000000000000000e+00 0.0000000000000000e+00 0.0000000000000000e+00
47 0.0000000000000000e+00 0.0000000000000000e+00 0.0000000000000000e+00
48 0.0000000000000000e+00 0.0000000000000000e+00 0.0000000000000000e+00
49 0.0000000000000000e+00 0.0000000000000000e+00 0.0000000000000000e+00
50 0.0000000000000000e+00 0.0000000000000000e+00 0.0000000000000000e+00
51 0.0000000000000000e+00 0.0000000000000000e+00 0.0000000000000000e+00
52 0.0000000000000000e+00 0.0000000000000000e+00 0.0000000000000000e+00
53 0.0000000000000000e+00 0.0000000000000000e+00 0.0000000000000000e+00
54 0.0000000000000000e+00 0.0000000000000000e+00 0.0000000000000000e+00
55 0.0000000000000000e+00 0.0000000000000000e+00 0.0000000000000000e+00
56 0.0000000000000000e+00 0.0000000000000000e+00 0.0000000000000000e+00
57 0.0000000000000000e+00 0.0000000000000000e+00 0.0000000000000000e+00
58 0.0000000000000000e+00 0.0000000000000000e+00 0.0000000000000000e+00
59 0.0000000000000000e+00 0.0000000000000000e+00 0.0000000000000000e+00
60 0.0000000000000000e+00 0.0000000000000000e+00 0.0000000000000000e+00
61 0.0000000000000000e+00 0.0000000000000000e+00 0.0000000000000000e+00
62 0.0000000000000000e+00 0.0000000000000000e+00 0.0000000000000000e+00
63 0.0000000000000000e+00 0.0000000000000000e+00 0.0000000000000000e+00
64 0.0000000000000000e+00 0.0000000000000000e+00 0.0000000000000000e+00
65 0.0000000000000000e+00 0.0000000000000000e+00 0.0000000000000000e+00
66 0.0000000000000000e+00 0.0000000000000000e+00 0.0000000000000000e+00
67 0.0000000000000000e+00 0.0000000000000000e+00 0.0000000000000000e+00
68 0.0000000000000000e+00 0.0000000000000000e+00 0.0000000000000000e+00
69 0.0000000000000000e+00 0.0000000000000000e+00 0.0000000000000000e+00
70 0.0000000000000000e+00 0.0000000000000000e+00 0.0000000000000000e+00
71 0.0000000000000000e+00 0.0000000000000000e+00 0.0000000000000000e+00
72 0.0000000000000000e+00 0.0000000000000000e+00 0.0000000000000000e+00
