 running on   12 total cores
 distrk:  each k-point on   12 cores,    1 groups
 distr:  one band on    6 cores,    2 groups
 using from now: INCAR     
 vasp.5.4.4.18Apr17-6-g9f103f2a35 (build Aug 13 2019 17:33:20) gamma-only       
  
 POSCAR found type information on POSCAR  Ty Ty
 POSCAR found :  2 types and      74 ions
 scaLAPACK will be used
 WARNING: type information on POSCAR and POTCAR are incompatible
 POTCAR overwrites the type information in POSCAR
 typ   1 type information:  Ty Ni
 WARNING: type information on POSCAR and POTCAR are incompatible
 POTCAR overwrites the type information in POSCAR
 typ   2 type information:  Ty S 
 LDA part: xc-table for Pade appr. of Perdew
 POSCAR, INCAR and KPOINTS ok, starting setup
 FFT: planning ...
 WAVECAR not read
 entering main loop
       N       E                     dE             d eps       ncg     rms          rms(c)
DAV:   1     0.920115061866E+04    0.92012E+04   -0.52060E+05  1200   0.154E+03
DAV:   2     0.506572563006E+03   -0.86946E+04   -0.83985E+04  1040   0.492E+02
DAV:   3    -0.358914870361E+03   -0.86549E+03   -0.83104E+03  1120   0.165E+02
DAV:   4    -0.404780447950E+03   -0.45866E+02   -0.45409E+02  1120   0.361E+01
DAV:   5    -0.406655724934E+03   -0.18753E+01   -0.18727E+01  1232   0.748E+00    0.100E+02
DAV:   6    -0.474877067863E+03   -0.68221E+02   -0.10094E+03  1224   0.131E+02    0.164E+02
DAV:   7    -0.373311962605E+03    0.10157E+03   -0.20077E+02  1112   0.747E+01    0.698E+01
DAV:   8    -0.419778839005E+03   -0.46467E+02   -0.24588E+02  1360   0.824E+01    0.148E+02
DAV:   9    -0.374981536160E+03    0.44797E+02   -0.15508E+02  1288   0.572E+01    0.569E+01
DAV:  10    -0.416746556936E+03   -0.41765E+02   -0.10459E+02  1336   0.676E+01    0.125E+02
DAV:  11    -0.378378223169E+03    0.38368E+02   -0.80805E+01  1336   0.426E+01    0.614E+01
DAV:  12    -0.363739605548E+03    0.14639E+02   -0.29747E+01  1336   0.328E+01    0.326E+01
DAV:  13    -0.361737545240E+03    0.20021E+01   -0.19952E+01  1344   0.283E+01    0.339E+01
DAV:  14    -0.357593531113E+03    0.41440E+01   -0.11947E+01  1328   0.202E+01    0.214E+01
DAV:  15    -0.356322036424E+03    0.12715E+01   -0.28538E+00  1344   0.109E+01    0.175E+01
DAV:  16    -0.355726207584E+03    0.59583E+00   -0.13498E+00  1312   0.757E+00    0.154E+01
DAV:  17    -0.355332021129E+03    0.39419E+00   -0.42769E-01  1320   0.378E+00    0.139E+01
DAV:  18    -0.354991648075E+03    0.34037E+00   -0.25906E-01  1328   0.343E+00    0.127E+01
DAV:  19    -0.354535565069E+03    0.45608E+00   -0.24776E-01  1376   0.345E+00    0.107E+01
DAV:  20    -0.353982238803E+03    0.55333E+00   -0.36480E-01  1376   0.456E+00    0.728E+00
DAV:  21    -0.353702351617E+03    0.27989E+00   -0.40204E-01  1336   0.418E+00    0.426E+00
DAV:  22    -0.353643572579E+03    0.58779E-01   -0.21666E-01  1312   0.252E+00    0.315E+00
DAV:  23    -0.353618399619E+03    0.25173E-01   -0.10501E-01  1240   0.192E+00    0.213E+00
DAV:  24    -0.353622730654E+03   -0.43310E-02   -0.75144E-02  1208   0.162E+00    0.241E+00
DAV:  25    -0.353610230843E+03    0.12500E-01   -0.57872E-02  1176   0.166E+00    0.158E+00
DAV:  26    -0.353605685230E+03    0.45456E-02   -0.32299E-02  1336   0.125E+00    0.127E+00
DAV:  27    -0.353599773311E+03    0.59119E-02   -0.24647E-02  1336   0.107E+00    0.754E-01
DAV:  28    -0.353598903773E+03    0.86954E-03   -0.11506E-02  1336   0.668E-01    0.667E-01
DAV:  29    -0.353597181530E+03    0.17222E-02   -0.55768E-03  1344   0.525E-01    0.323E-01
DAV:  30    -0.353597502264E+03   -0.32073E-03   -0.16528E-03  1208   0.251E-01    0.304E-01
DAV:  31    -0.353597467555E+03    0.34709E-04   -0.95379E-04   992   0.229E-01
   1 F= -.35359747E+03 E0= -.35305635E+03  d E =-.108224E+01
