<?xml version="1.0" encoding="ISO-8859-1"?>
<modeling>
 <generator>
  <i name="program" type="string">vasp </i>
  <i name="version" type="string">6.1.0  </i>
  <i name="subversion" type="string">28Jan20 (build Mar 31 2020 17:42:31) gamma-only                       parallel </i>
  <i name="platform" type="string">LinuxIFC </i>
  <i name="date" type="string">2020 04 12 </i>
  <i name="time" type="string">19:54:00 </i>
 </generator>
 <incar>
  <i type="string" name="SYSTEM">"Millerite NiS"</i>
  <i type="int" name="NSIM">     4</i>
  <i type="int" name="NELM">   100</i>
  <i name="ENCUT">    450.00000000</i>
  <i type="string" name="LREAL">A</i>
  <i type="int" name="ISMEAR">     0</i>
  <i type="int" name="NWRITE">     2</i>
  <i type="logical" name="LWAVE"> F  </i>
  <i type="logical" name="LCHARG"> F  </i>
  <i type="int" name="NCORE">     6</i>
  <i type="int" name="NELM">   100</i>
 </incar>
 <structure name="primitive_cell" >
  <crystal>
   <varray name="basis" >
    <v>       9.42510255       3.57329804       0.00000000 </v>
    <v>       0.00000000      10.07973298       0.00000000 </v>
    <v>       0.00000000       0.00000000      20.68350356 </v>
   </varray>
   <i name="volume">   1964.98490008 </i>
   <varray name="rec_basis" >
    <v>       0.10609964       0.00000000       0.00000000 </v>
    <v>      -0.03761267       0.09920898       0.00000000 </v>
    <v>       0.00000000       0.00000000       0.04834771 </v>
   </varray>
  </crystal>
  <varray name="positions" >
   <v>       0.24679038       0.94522030       0.00000000 </v>
   <v>       0.39705889       0.79495179       0.12693702 </v>
   <v>       0.54732740       0.64468328       0.25387405 </v>
   <v>       0.69759592       0.49441476       0.38081107 </v>
   <v>       0.84786443       0.34414625       0.50774810 </v>
   <v>       0.11381506       0.41152895       0.16924937 </v>
   <v>       0.26408358       0.26126044       0.29618639 </v>
   <v>       0.41435209       0.11099193       0.42312341 </v>
   <v>       0.96354655       0.56179746       0.04231234 </v>
   <v>       0.13110826       0.72756909       0.46543576 </v>
   <v>       0.68030272       0.17837463       0.08462468 </v>
   <v>       0.83057123       0.02810611       0.21156171 </v>
   <v>       0.98083975       0.87783760       0.33849873 </v>
   <v>       0.50762556       0.42017912       0.22033653 </v>
   <v>       0.65789407       0.26991061       0.34727355 </v>
   <v>       0.80816259       0.11964209       0.47421057 </v>
   <v>       0.07411322       0.18702479       0.13571184 </v>
   <v>       0.22438173       0.03675628       0.26264887 </v>
   <v>       0.37465024       0.88648777       0.38958589 </v>
   <v>       0.52491876       0.73621926       0.51652292 </v>
   <v>       0.09140642       0.50306493       0.43189823 </v>
   <v>       0.64060088       0.95387047       0.05108716 </v>
   <v>       0.79086939       0.80360196       0.17802418 </v>
   <v>       0.94113790       0.65333344       0.30496121 </v>
   <v>       0.03266674       0.15934394       0.44067305 </v>
   <v>       0.58186121       0.61014947       0.05986198 </v>
   <v>       0.73212972       0.45988096       0.18679900 </v>
   <v>       0.88239823       0.30961245       0.31373603 </v>
   <v>       0.29861738       0.22672664       0.10217432 </v>
   <v>       0.44888589       0.07645812       0.22911134 </v>
   <v>       0.59915440       0.92618961       0.35604837 </v>
   <v>       0.74942291       0.77592110       0.48298539 </v>
   <v>       0.01537355       0.84330380       0.14448666 </v>
   <v>       0.16564206       0.69303529       0.27142369 </v>
   <v>       0.31591057       0.54276677       0.39836071 </v>
   <v>       0.86510504       0.99357231       0.01754964 </v>
   <v>       0.03660483       0.95519385       0.49805764 </v>
   <v>       0.58579929       0.40599939       0.11724657 </v>
   <v>       0.73606781       0.25573087       0.24418359 </v>
   <v>       0.88633632       0.10546236       0.37112062 </v>
   <v>       0.15228695       0.17284506       0.03262188 </v>
   <v>       0.30255546       0.02257655       0.15955891 </v>
   <v>       0.45282398       0.87230804       0.28649593 </v>
   <v>       0.60309249       0.72203952       0.41343296 </v>
   <v>       0.01931164       0.63915371       0.20187125 </v>
   <v>       0.16958015       0.48888520       0.32880827 </v>
   <v>       0.31984866       0.33861669       0.45574530 </v>
   <v>       0.86904312       0.78942223       0.07493423 </v>
   <v>       0.48608562       0.84214306       0.03301497 </v>
   <v>       0.63635413       0.69187455       0.15995199 </v>
   <v>       0.78662264       0.54160604       0.28688901 </v>
   <v>       0.93689115       0.39133753       0.41382604 </v>
   <v>       0.20284179       0.45872023       0.07532731 </v>
   <v>       0.35311030       0.30845171       0.20226433 </v>
   <v>       0.50337881       0.15818320       0.32920136 </v>
   <v>       0.65364733       0.00791469       0.45613838 </v>
   <v>       0.06986647       0.92502888       0.24457667 </v>
   <v>       0.22013498       0.77476036       0.37151370 </v>
   <v>       0.37040350       0.62449185       0.49845072 </v>
   <v>       0.91959796       0.07529739       0.11763965 </v>
   <v>       0.20021045       0.79158823       0.07572039 </v>
   <v>       0.35047897       0.64131972       0.20265741 </v>
   <v>       0.50074748       0.49105120       0.32959444 </v>
   <v>       0.65101599       0.34078269       0.45653146 </v>
   <v>       0.06723514       0.25789688       0.24496975 </v>
   <v>       0.21750365       0.10762837       0.37190678 </v>
   <v>       0.36777216       0.95735985       0.49884380 </v>
   <v>       0.91696662       0.40816539       0.11803273 </v>
   <v>       0.48345428       0.17501107       0.03340805 </v>
   <v>       0.63372279       0.02474255       0.16034507 </v>
   <v>       0.78399131       0.87447404       0.28728210 </v>
   <v>       0.93425982       0.72420553       0.41421912 </v>
  </varray>
 </structure>
 <varray name="primitive_index" >
  <v type="int" >        1 </v>
  <v type="int" >        2 </v>
  <v type="int" >        3 </v>
  <v type="int" >        4 </v>
  <v type="int" >        5 </v>
  <v type="int" >        6 </v>
  <v type="int" >        7 </v>
  <v type="int" >        8 </v>
  <v type="int" >        9 </v>
  <v type="int" >       10 </v>
  <v type="int" >       11 </v>
  <v type="int" >       12 </v>
  <v type="int" >       13 </v>
  <v type="int" >       14 </v>
  <v type="int" >       15 </v>
  <v type="int" >       16 </v>
  <v type="int" >       17 </v>
  <v type="int" >       18 </v>
  <v type="int" >       19 </v>
  <v type="int" >       20 </v>
  <v type="int" >       21 </v>
  <v type="int" >       22 </v>
  <v type="int" >       23 </v>
  <v type="int" >       24 </v>
  <v type="int" >       25 </v>
  <v type="int" >       26 </v>
  <v type="int" >       27 </v>
  <v type="int" >       28 </v>
  <v type="int" >       29 </v>
  <v type="int" >       30 </v>
  <v type="int" >       31 </v>
  <v type="int" >       32 </v>
  <v type="int" >       33 </v>
  <v type="int" >       34 </v>
  <v type="int" >       35 </v>
  <v type="int" >       36 </v>
  <v type="int" >       37 </v>
  <v type="int" >       38 </v>
  <v type="int" >       39 </v>
  <v type="int" >       40 </v>
  <v type="int" >       41 </v>
  <v type="int" >       42 </v>
  <v type="int" >       43 </v>
  <v type="int" >       44 </v>
  <v type="int" >       45 </v>
  <v type="int" >       46 </v>
  <v type="int" >       47 </v>
  <v type="int" >       48 </v>
  <v type="int" >       49 </v>
  <v type="int" >       50 </v>
  <v type="int" >       51 </v>
  <v type="int" >       52 </v>
  <v type="int" >       53 </v>
  <v type="int" >       54 </v>
  <v type="int" >       55 </v>
  <v type="int" >       56 </v>
  <v type="int" >       57 </v>
  <v type="int" >       58 </v>
  <v type="int" >       59 </v>
  <v type="int" >       60 </v>
  <v type="int" >       61 </v>
  <v type="int" >       62 </v>
  <v type="int" >       63 </v>
  <v type="int" >       64 </v>
  <v type="int" >       65 </v>
  <v type="int" >       66 </v>
  <v type="int" >       67 </v>
  <v type="int" >       68 </v>
  <v type="int" >       69 </v>
  <v type="int" >       70 </v>
  <v type="int" >       71 </v>
  <v type="int" >       72 </v>
 </varray>
 <kpoints>
  <generation param="Gamma">
   <v type="int" name="divisions">       1        1        1 </v>
   <v name="usershift">      0.00000000       0.00000000       0.00000000 </v>
   <v name="genvec1">      1.00000000       0.00000000       0.00000000 </v>
   <v name="genvec2">     -0.00000000       1.00000000       0.00000000 </v>
   <v name="genvec3">      0.00000000       0.00000000       1.00000000 </v>
   <v name="shift">      0.00000000       0.00000000       0.00000000 </v>
  </generation>
  <varray name="kpointlist" >
   <v>       0.00000000       0.00000000       0.00000000 </v>
  </varray>
  <varray name="weights" >
   <v>       1.00000000 </v>
  </varray>
 </kpoints>
 <parameters>
  <separator name="general" >
   <i type="string" name="SYSTEM">"Millerite NiS"</i>
   <i type="logical" name="LCOMPAT"> F  </i>
  </separator>
  <separator name="electronic" >
   <i type="string" name="PREC">normal</i>
   <i name="ENMAX">    450.00000000</i>
   <i name="ENAUG">    703.44300000</i>
   <i name="EDIFF">      0.00010000</i>
   <i type="int" name="IALGO">    38</i>
   <i type="int" name="IWAVPR">    10</i>
   <i type="int" name="NBANDS">   480</i>
   <i type="int" name="NBANDSLOW">    -1</i>
   <i type="int" name="NBANDSHIGH">    -1</i>
   <i name="NELECT">    792.00000000</i>
   <i type="int" name="TURBO">     0</i>
   <i type="int" name="IRESTART">     0</i>
   <i type="int" name="NREBOOT">     0</i>
   <i type="int" name="NMIN">     0</i>
   <i name="EREF">      0.00000000</i>
   <separator name="electronic smearing" >
    <i type="int" name="ISMEAR">     0</i>
    <i name="SIGMA">      0.20000000</i>
    <i name="KSPACING">      0.50000000</i>
    <i type="logical" name="KGAMMA"> T  </i>
    <i type="logical" name="KBLOWUP"> T  </i>
   </separator>
   <separator name="electronic projectors" >
    <i type="logical" name="LREAL"> T  </i>
    <v name="ROPT">     -0.00050000     -0.00050000</v>
    <i type="int" name="LMAXPAW">  -100</i>
    <i type="int" name="LMAXMIX">     2</i>
    <i type="logical" name="NLSPLINE"> F  </i>
   </separator>
   <separator name="electronic startup" >
    <i type="int" name="ISTART">     0</i>
    <i type="int" name="ICHARG">     2</i>
    <i type="int" name="INIWAV">     1</i>
   </separator>
   <separator name="electronic spin" >
    <i type="int" name="ISPIN">     1</i>
    <i type="logical" name="LNONCOLLINEAR"> F  </i>
    <v name="MAGMOM">      1.00000000      1.00000000      1.00000000      1.00000000      1.00000000      1.00000000      1.00000000      1.00000000      1.00000000      1.00000000      1.00000000      1.00000000      1.00000000      1.00000000      1.00000000      1.00000000      1.00000000      1.00000000      1.00000000      1.00000000
      1.00000000      1.00000000      1.00000000      1.00000000      1.00000000      1.00000000      1.00000000      1.00000000      1.00000000      1.00000000      1.00000000      1.00000000      1.00000000      1.00000000      1.00000000      1.00000000      1.00000000      1.00000000      1.00000000      1.00000000
      1.00000000      1.00000000      1.00000000      1.00000000      1.00000000      1.00000000      1.00000000      1.00000000      1.00000000      1.00000000      1.00000000      1.00000000      1.00000000      1.00000000      1.00000000      1.00000000      1.00000000      1.00000000      1.00000000      1.00000000
      1.00000000      1.00000000      1.00000000      1.00000000      1.00000000      1.00000000      1.00000000      1.00000000      1.00000000      1.00000000      1.00000000      1.00000000</v>
    <i name="NUPDOWN">     -1.00000000</i>
    <i type="logical" name="LSORBIT"> F  </i>
    <v name="SAXIS">      0.00000000      0.00000000      1.00000000</v>
    <i type="logical" name="LSPIRAL"> F  </i>
    <v name="QSPIRAL">      0.00000000      0.00000000      0.00000000</v>
    <i type="logical" name="LZEROZ"> F  </i>
   </separator>
   <separator name="electronic exchange-correlation" >
    <i type="logical" name="LASPH"> F  </i>
    <i type="logical" name="LMETAGGA"> F  </i>
   </separator>
   <separator name="electronic convergence" >
    <i type="int" name="NELM">   100</i>
    <i type="int" name="NELMDL">    -5</i>
    <i type="int" name="NELMIN">     2</i>
    <i name="ENINI">    450.00000000</i>
    <separator name="electronic convergence detail" >
     <i type="logical" name="LDIAG"> T  </i>
     <i type="logical" name="LSUBROT"> F  </i>
     <i name="WEIMIN">      0.00000000</i>
     <i name="EBREAK">      0.00000005</i>
     <i name="DEPER">      0.30000000</i>
     <i type="int" name="NRMM">     4</i>
     <i name="TIME">      0.40000000</i>
    </separator>
   </separator>
   <separator name="electronic mixer" >
    <i name="AMIX">      0.40000000</i>
    <i name="BMIX">      1.00000000</i>
    <i name="AMIN">      0.10000000</i>
    <i name="AMIX_MAG">      1.60000000</i>
    <i name="BMIX_MAG">      1.00000000</i>
    <separator name="electronic mixer details" >
     <i type="int" name="IMIX">     4</i>
     <i type="logical" name="MIXFIRST"> F  </i>
     <i type="int" name="MAXMIX">   -45</i>
     <i name="WC">    100.00000000</i>
     <i type="int" name="INIMIX">     1</i>
     <i type="int" name="MIXPRE">     1</i>
     <i type="int" name="MREMOVE">     5</i>
    </separator>
   </separator>
   <separator name="electronic dipolcorrection" >
    <i type="logical" name="LDIPOL"> F  </i>
    <i type="logical" name="LMONO"> F  </i>
    <i type="int" name="IDIPOL">     0</i>
    <i name="EPSILON">      1.00000000</i>
    <v name="DIPOL">   -100.00000000   -100.00000000   -100.00000000</v>
    <i name="EFIELD">      0.00000000</i>
   </separator>
  </separator>
  <separator name="grids" >
   <i type="int" name="NGX">    54</i>
   <i type="int" name="NGY">    54</i>
   <i type="int" name="NGZ">   108</i>
   <i type="int" name="NGXF">   108</i>
   <i type="int" name="NGYF">   108</i>
   <i type="int" name="NGZF">   216</i>
   <i type="logical" name="ADDGRID"> F  </i>
  </separator>
  <separator name="ionic" >
   <i type="int" name="NSW">     0</i>
   <i type="int" name="IBRION">    -1</i>
   <i type="int" name="MDALGO">     0</i>
   <i type="int" name="ISIF">     2</i>
   <i name="PSTRESS">      0.00000000</i>
   <i name="EDIFFG">      0.00100000</i>
   <i type="int" name="NFREE">     0</i>
   <i name="POTIM">      0.50000000</i>
   <i name="SMASS">     -3.00000000</i>
   <i name="SCALEE">      1.00000000</i>
  </separator>
  <separator name="ionic md" >
   <i name="TEBEG">      0.00010000</i>
   <i name="TEEND">      0.00010000</i>
   <i type="int" name="NBLOCK">     1</i>
   <i type="int" name="KBLOCK">     1</i>
   <i type="int" name="NPACO">   256</i>
   <i name="APACO">     16.00000000</i>
  </separator>
  <separator name="symmetry" >
   <i type="int" name="ISYM">     2</i>
   <i name="SYMPREC">      0.00001000</i>
  </separator>
  <separator name="dos" >
   <i type="int" name="LORBIT">     0</i>
   <v name="RWIGS">     -1.00000000     -1.00000000</v>
   <i type="int" name="NEDOS">   301</i>
   <i name="EMIN">     10.00000000</i>
   <i name="EMAX">    -10.00000000</i>
   <i name="EFERMI">      0.00000000</i>
  </separator>
  <separator name="writing" >
   <i type="int" name="NWRITE">     2</i>
   <i type="logical" name="LWAVE"> F  </i>
   <i type="logical" name="LDOWNSAMPLE"> F  </i>
   <i type="logical" name="LCHARG"> F  </i>
   <i type="logical" name="LPARD"> F  </i>
   <i type="logical" name="LVTOT"> F  </i>
   <i type="logical" name="LVHAR"> F  </i>
   <i type="logical" name="LELF"> F  </i>
   <i type="logical" name="LOPTICS"> F  </i>
   <v name="STM">      0.00000000      0.00000000      0.00000000      0.00000000      0.00000000      0.00000000      0.00000000</v>
  </separator>
  <separator name="performance" >
   <i type="int" name="NPAR">     8</i>
   <i type="int" name="NSIM">     4</i>
   <i type="int" name="NBLK">    -1</i>
   <i type="logical" name="LPLANE"> T  </i>
   <i type="logical" name="LSCALAPACK"> T  </i>
   <i type="logical" name="LSCAAWARE"> F  </i>
   <i type="logical" name="LSCALU"> F  </i>
   <i type="logical" name="LASYNC"> F  </i>
   <i type="logical" name="LORBITALREAL"> F  </i>
  </separator>
  <separator name="miscellaneous" >
   <i type="int" name="IDIOT">     3</i>
   <i type="int" name="PHON_NSTRUCT">    -1</i>
   <i type="logical" name="LMUSIC"> F  </i>
   <v name="POMASS">     58.69000000     32.06600000</v>
   <v name="DARWINR">      0.00000000      0.00000000</v>
   <v name="DARWINV">      1.00000000      1.00000000</v>
   <i type="logical" name="LCORR"> T  </i>
  </separator>
  <i type="logical" name="GGA_COMPAT"> T  </i>
  <i type="logical" name="LBERRY"> F  </i>
  <i type="int" name="ICORELEVEL">     0</i>
  <i type="logical" name="LDAU"> F  </i>
  <i type="int" name="I_CONSTRAINED_M">     0</i>
  <separator name="electronic exchange-correlation" >
   <i type="string" name="GGA">--</i>
   <i type="int" name="VOSKOWN">     0</i>
   <i type="logical" name="LHFCALC"> F  </i>
   <i type="string" name="PRECFOCK"></i>
   <i type="logical" name="LSYMGRAD"> F  </i>
   <i type="logical" name="LHFONE"> F  </i>
   <i type="logical" name="LRHFCALC"> F  </i>
   <i type="logical" name="LTHOMAS"> F  </i>
   <i type="logical" name="LMODELHF"> F  </i>
   <i type="logical" name="LFOCKACE"> F  </i>
   <i name="ENCUT4O">     -1.00000000</i>
   <i type="int" name="EXXOEP">     0</i>
   <i type="int" name="FOURORBIT">     0</i>
   <i name="AEXX">      0.00000000</i>
   <i name="HFALPHA">      0.00000000</i>
   <i name="MCALPHA">      0.00000000</i>
   <i name="ALDAX">      1.00000000</i>
   <i name="AGGAX">      1.00000000</i>
   <i name="ALDAC">      1.00000000</i>
   <i name="AGGAC">      1.00000000</i>
   <i type="int" name="NKREDX">     1</i>
   <i type="int" name="NKREDY">     1</i>
   <i type="int" name="NKREDZ">     1</i>
   <i type="logical" name="SHIFTRED"> F  </i>
   <i type="logical" name="ODDONLY"> F  </i>
   <i type="logical" name="EVENONLY"> F  </i>
   <i type="int" name="LMAXFOCK">     0</i>
   <i type="int" name="NMAXFOCKAE">     0</i>
   <i type="logical" name="LFOCKAEDFT"> F  </i>
   <i name="HFSCREEN">      0.00000000</i>
   <i name="HFSCREENC">      0.00000000</i>
   <i type="int" name="NBANDSGWLOW">     0</i>
  </separator>
  <separator name="vdW DFT" >
   <i type="logical" name="LUSE_VDW"> F  </i>
   <i name="Zab_VDW">     -0.84910000</i>
   <i name="PARAM1">      0.12340000</i>
   <i name="PARAM2">      1.00000000</i>
   <i name="PARAM3">      0.00000000</i>
  </separator>
  <separator name="model GW" >
   <i type="int" name="MODEL_GW">     0</i>
   <i name="MODEL_EPS0">     16.37487417</i>
   <i name="MODEL_ALPHA">      1.00000000</i>
  </separator>
  <separator name="linear response parameters" >
   <i type="logical" name="LEPSILON"> F  </i>
   <i type="logical" name="LRPA"> F  </i>
   <i type="logical" name="LNABLA"> F  </i>
   <i type="logical" name="LVEL"> F  </i>
   <i type="int" name="KINTER">     0</i>
   <i name="CSHIFT">      0.10000000</i>
   <i name="OMEGAMAX">     -1.00000000</i>
   <i name="DEG_THRESHOLD">      0.00200000</i>
   <i name="RTIME">     -0.10000000</i>
   <i name="WPLASMAI">      0.00000000</i>
   <v name="DFIELD">      0.00000000      0.00000000      0.00000000</v>
   <v name="WPLASMA">      0.00000000      0.00000000      0.00000000      0.00000000      0.00000000      0.00000000      0.00000000      0.00000000      0.00000000</v>
  </separator>
  <separator name="orbital magnetization" >
   <i type="logical" name="NUCIND"> F  </i>
   <v name="MAGPOS">      0.00000000      0.00000000      0.00000000</v>
   <i type="logical" name="LNICSALL"> T  </i>
   <i type="logical" name="ORBITALMAG"> F  </i>
   <i type="logical" name="LMAGBLOCH"> F  </i>
   <i type="logical" name="LCHIMAG"> F  </i>
   <i type="logical" name="LGAUGE"> T  </i>
   <i type="int" name="MAGATOM">     0</i>
   <v name="MAGDIPOL">      0.00000000      0.00000000      0.00000000</v>
   <v name="AVECCONST">      0.00000000      0.00000000      0.00000000</v>
  </separator>
  <separator name="response functions" >
   <i type="logical" name="LFINITE_TEMPERATURE"> F  </i>
   <i type="logical" name="LADDER"> F  </i>
   <i type="logical" name="LRPAFORCE"> F  </i>
   <i type="logical" name="LFXC"> F  </i>
   <i type="logical" name="LHARTREE"> T  </i>
   <i type="int" name="IBSE">     0</i>
   <v type="int" name="KPOINT">    -1     0     0     0</v>
   <i type="logical" name="LTCTC"> F  </i>
   <i type="logical" name="LTCTE"> F  </i>
   <i type="logical" name="LTETE"> F  </i>
   <i type="logical" name="LTRIPLET"> F  </i>
   <i type="logical" name="LFXCEPS"> F  </i>
   <i type="logical" name="LFXHEG"> F  </i>
   <i type="int" name="NATURALO">     2</i>
   <i type="logical" name="LHOLEGF"> F  </i>
   <i type="logical" name="L2ORDER"> F  </i>
   <i type="logical" name="LDMP1"> F  </i>
   <i type="logical" name="LMP2LT"> F  </i>
   <i type="logical" name="LSMP2LT"> F  </i>
   <i type="logical" name="LGWLF"> F  </i>
   <i name="ENCUTGW">     -2.00000000</i>
   <i name="ENCUTGWSOFT">     -2.00000000</i>
   <i name="ENCUTLF">     -1.00000000</i>
   <i type="logical" name="LESF_SPLINES"> F  </i>
   <i type="int" name="LMAXMP2">    -1</i>
   <i name="SCISSOR">      0.00000000</i>
   <i type="int" name="NOMEGA">     0</i>
   <i type="int" name="NOMEGAR">     0</i>
   <i type="int" name="NBANDSGW">    -1</i>
   <i type="int" name="NBANDSO">    -1</i>
   <i type="int" name="NBANDSV">    -1</i>
   <i type="int" name="NELM">   100</i>
   <i type="int" name="NELMHF">     1</i>
   <i type="int" name="DIM">     3</i>
   <i type="int" name="IESPILON">     4</i>
   <i type="int" name="ANTIRES">     0</i>
   <i name="OMEGAMAX">    -30.00000000</i>
   <i name="OMEGAMIN">    -30.00000000</i>
   <i name="OMEGATL">   -200.00000000</i>
   <i type="int" name="OMEGAGRID">     0</i>
   <i name="CSHIFT">     -0.10000000</i>
   <i type="logical" name="LSELFENERGY"> F  </i>
   <i type="logical" name="LSPECTRAL"> F  </i>
   <i type="logical" name="LSPECTRALGW"> F  </i>
   <i type="logical" name="LSINGLES"> F  </i>
   <i type="logical" name="LFERMIGW"> F  </i>
   <i type="logical" name="ODDONLYGW"> F  </i>
   <i type="logical" name="EVENONLYGW"> F  </i>
   <i type="int" name="NKREDLFX">     1</i>
   <i type="int" name="NKREDLFY">     1</i>
   <i type="int" name="NKREDLFZ">     1</i>
   <i type="int" name="MAXMEM">  2800</i>
   <i type="int" name="TELESCOPE">     0</i>
   <i type="int" name="NTAUPAR">    -1</i>
   <i type="int" name="NOMEGAPAR">    -1</i>
   <i name="LAMBDA">      1.00000000</i>
  </separator>
  <separator name="External order field" >
   <i name="OFIELD_KAPPA">      0.00000000</i>
   <v name="OFIELD_K">      0.00000000      0.00000000      0.00000000</v>
   <i name="OFIELD_Q6_NEAR">      0.00000000</i>
   <i name="OFIELD_Q6_FAR">      0.00000000</i>
   <i name="OFIELD_A">      0.00000000</i>
  </separator>
 </parameters>
 <atominfo>
  <atoms>      72 </atoms>
  <types>       2 </types>
  <array name="atoms" >
   <dimension dim="1">ion</dimension>
   <field type="string">element</field>
   <field type="int">atomtype</field>
   <set>
    <rc><c>Ni</c><c>   1</c></rc>
    <rc><c>Ni</c><c>   1</c></rc>
    <rc><c>Ni</c><c>   1</c></rc>
    <rc><c>Ni</c><c>   1</c></rc>
    <rc><c>Ni</c><c>   1</c></rc>
    <rc><c>Ni</c><c>   1</c></rc>
    <rc><c>Ni</c><c>   1</c></rc>
    <rc><c>Ni</c><c>   1</c></rc>
    <rc><c>Ni</c><c>   1</c></rc>
    <rc><c>Ni</c><c>   1</c></rc>
    <rc><c>Ni</c><c>   1</c></rc>
    <rc><c>Ni</c><c>   1</c></rc>
    <rc><c>Ni</c><c>   1</c></rc>
    <rc><c>Ni</c><c>   1</c></rc>
    <rc><c>Ni</c><c>   1</c></rc>
    <rc><c>Ni</c><c>   1</c></rc>
    <rc><c>Ni</c><c>   1</c></rc>
    <rc><c>Ni</c><c>   1</c></rc>
    <rc><c>Ni</c><c>   1</c></rc>
    <rc><c>Ni</c><c>   1</c></rc>
    <rc><c>Ni</c><c>   1</c></rc>
    <rc><c>Ni</c><c>   1</c></rc>
    <rc><c>Ni</c><c>   1</c></rc>
    <rc><c>Ni</c><c>   1</c></rc>
    <rc><c>Ni</c><c>   1</c></rc>
    <rc><c>Ni</c><c>   1</c></rc>
    <rc><c>Ni</c><c>   1</c></rc>
    <rc><c>Ni</c><c>   1</c></rc>
    <rc><c>Ni</c><c>   1</c></rc>
    <rc><c>Ni</c><c>   1</c></rc>
    <rc><c>Ni</c><c>   1</c></rc>
    <rc><c>Ni</c><c>   1</c></rc>
    <rc><c>Ni</c><c>   1</c></rc>
    <rc><c>Ni</c><c>   1</c></rc>
    <rc><c>Ni</c><c>   1</c></rc>
    <rc><c>Ni</c><c>   1</c></rc>
    <rc><c>S </c><c>   2</c></rc>
    <rc><c>S </c><c>   2</c></rc>
    <rc><c>S </c><c>   2</c></rc>
    <rc><c>S </c><c>   2</c></rc>
    <rc><c>S </c><c>   2</c></rc>
    <rc><c>S </c><c>   2</c></rc>
    <rc><c>S </c><c>   2</c></rc>
    <rc><c>S </c><c>   2</c></rc>
    <rc><c>S </c><c>   2</c></rc>
    <rc><c>S </c><c>   2</c></rc>
    <rc><c>S </c><c>   2</c></rc>
    <rc><c>S </c><c>   2</c></rc>
    <rc><c>S </c><c>   2</c></rc>
    <rc><c>S </c><c>   2</c></rc>
    <rc><c>S </c><c>   2</c></rc>
    <rc><c>S </c><c>   2</c></rc>
    <rc><c>S </c><c>   2</c></rc>
    <rc><c>S </c><c>   2</c></rc>
    <rc><c>S </c><c>   2</c></rc>
    <rc><c>S </c><c>   2</c></rc>
    <rc><c>S </c><c>   2</c></rc>
    <rc><c>S </c><c>   2</c></rc>
    <rc><c>S </c><c>   2</c></rc>
    <rc><c>S </c><c>   2</c></rc>
    <rc><c>S </c><c>   2</c></rc>
    <rc><c>S </c><c>   2</c></rc>
    <rc><c>S </c><c>   2</c></rc>
    <rc><c>S </c><c>   2</c></rc>
    <rc><c>S </c><c>   2</c></rc>
    <rc><c>S </c><c>   2</c></rc>
    <rc><c>S </c><c>   2</c></rc>
    <rc><c>S </c><c>   2</c></rc>
    <rc><c>S </c><c>   2</c></rc>
    <rc><c>S </c><c>   2</c></rc>
    <rc><c>S </c><c>   2</c></rc>
    <rc><c>S </c><c>   2</c></rc>
   </set>
  </array>
  <array name="atomtypes" >
   <dimension dim="1">type</dimension>
   <field type="int">atomspertype</field>
   <field type="string">element</field>
   <field>mass</field>
   <field>valence</field>
   <field type="string">pseudopotential</field>
   <set>
    <rc><c>  36</c><c>Ni</c><c>     58.69000000</c><c>     16.00000000</c><c>  PAW_PBE Ni_pv 06Sep2000               </c></rc>
    <rc><c>  36</c><c>S </c><c>     32.06600000</c><c>      6.00000000</c><c>  PAW_PBE S 06Sep2000                   </c></rc>
   </set>
  </array>
 </atominfo>
 <structure name="initialpos" >
  <crystal>
   <varray name="basis" >
    <v>       9.42510255       3.57329804       0.00000000 </v>
    <v>       0.00000000      10.07973298       0.00000000 </v>
    <v>       0.00000000       0.00000000      20.68350356 </v>
   </varray>
   <i name="volume">   1964.98490008 </i>
   <varray name="rec_basis" >
    <v>       0.10609964       0.00000000       0.00000000 </v>
    <v>      -0.03761267       0.09920898       0.00000000 </v>
    <v>       0.00000000       0.00000000       0.04834771 </v>
   </varray>
  </crystal>
  <varray name="positions" >
   <v>       0.24679038       0.94522030       0.00000000 </v>
   <v>       0.39705889       0.79495179       0.12693702 </v>
   <v>       0.54732740       0.64468328       0.25387405 </v>
   <v>       0.69759592       0.49441476       0.38081107 </v>
   <v>       0.84786443       0.34414625       0.50774810 </v>
   <v>       0.11381506       0.41152895       0.16924937 </v>
   <v>       0.26408358       0.26126044       0.29618639 </v>
   <v>       0.41435209       0.11099193       0.42312341 </v>
   <v>       0.96354655       0.56179746       0.04231234 </v>
   <v>       0.13110826       0.72756909       0.46543576 </v>
   <v>       0.68030272       0.17837463       0.08462468 </v>
   <v>       0.83057123       0.02810611       0.21156171 </v>
   <v>       0.98083975       0.87783760       0.33849873 </v>
   <v>       0.50762556       0.42017912       0.22033653 </v>
   <v>       0.65789407       0.26991061       0.34727355 </v>
   <v>       0.80816259       0.11964209       0.47421057 </v>
   <v>       0.07411322       0.18702479       0.13571184 </v>
   <v>       0.22438173       0.03675628       0.26264887 </v>
   <v>       0.37465024       0.88648777       0.38958589 </v>
   <v>       0.52491876       0.73621926       0.51652292 </v>
   <v>       0.09140642       0.50306493       0.43189823 </v>
   <v>       0.64060088       0.95387047       0.05108716 </v>
   <v>       0.79086939       0.80360196       0.17802418 </v>
   <v>       0.94113790       0.65333344       0.30496121 </v>
   <v>       0.03266674       0.15934394       0.44067305 </v>
   <v>       0.58186121       0.61014947       0.05986198 </v>
   <v>       0.73212972       0.45988096       0.18679900 </v>
   <v>       0.88239823       0.30961245       0.31373603 </v>
   <v>       0.29861738       0.22672664       0.10217432 </v>
   <v>       0.44888589       0.07645812       0.22911134 </v>
   <v>       0.59915440       0.92618961       0.35604837 </v>
   <v>       0.74942291       0.77592110       0.48298539 </v>
   <v>       0.01537355       0.84330380       0.14448666 </v>
   <v>       0.16564206       0.69303529       0.27142369 </v>
   <v>       0.31591057       0.54276677       0.39836071 </v>
   <v>       0.86510504       0.99357231       0.01754964 </v>
   <v>       0.03660483       0.95519385       0.49805764 </v>
   <v>       0.58579929       0.40599939       0.11724657 </v>
   <v>       0.73606781       0.25573087       0.24418359 </v>
   <v>       0.88633632       0.10546236       0.37112062 </v>
   <v>       0.15228695       0.17284506       0.03262188 </v>
   <v>       0.30255546       0.02257655       0.15955891 </v>
   <v>       0.45282398       0.87230804       0.28649593 </v>
   <v>       0.60309249       0.72203952       0.41343296 </v>
   <v>       0.01931164       0.63915371       0.20187125 </v>
   <v>       0.16958015       0.48888520       0.32880827 </v>
   <v>       0.31984866       0.33861669       0.45574530 </v>
   <v>       0.86904312       0.78942223       0.07493423 </v>
   <v>       0.48608562       0.84214306       0.03301497 </v>
   <v>       0.63635413       0.69187455       0.15995199 </v>
   <v>       0.78662264       0.54160604       0.28688901 </v>
   <v>       0.93689115       0.39133753       0.41382604 </v>
   <v>       0.20284179       0.45872023       0.07532731 </v>
   <v>       0.35311030       0.30845171       0.20226433 </v>
   <v>       0.50337881       0.15818320       0.32920136 </v>
   <v>       0.65364733       0.00791469       0.45613838 </v>
   <v>       0.06986647       0.92502888       0.24457667 </v>
   <v>       0.22013498       0.77476036       0.37151370 </v>
   <v>       0.37040350       0.62449185       0.49845072 </v>
   <v>       0.91959796       0.07529739       0.11763965 </v>
   <v>       0.20021045       0.79158823       0.07572039 </v>
   <v>       0.35047897       0.64131972       0.20265741 </v>
   <v>       0.50074748       0.49105120       0.32959444 </v>
   <v>       0.65101599       0.34078269       0.45653146 </v>
   <v>       0.06723514       0.25789688       0.24496975 </v>
   <v>       0.21750365       0.10762837       0.37190678 </v>
   <v>       0.36777216       0.95735985       0.49884380 </v>
   <v>       0.91696662       0.40816539       0.11803273 </v>
   <v>       0.48345428       0.17501107       0.03340805 </v>
   <v>       0.63372279       0.02474255       0.16034507 </v>
   <v>       0.78399131       0.87447404       0.28728210 </v>
   <v>       0.93425982       0.72420553       0.41421912 </v>
  </varray>
 </structure>
 <calculation>
  <scstep>
   <time name="dav">    2.13    2.14</time>
   <time name="total">    2.18    2.19</time>
   <energy>
    <i name="alphaZ">   1893.09323658 </i>
    <i name="ewald"> 164892.17340086 </i>
    <i name="hartreedc">-287467.83170517 </i>
    <i name="XCdc">   3652.03425225 </i>
    <i name="pawpsdc"> 112729.53333415 </i>
    <i name="pawaedc">-117641.51188735 </i>
    <i name="eentropy">     -0.43304209 </i>
    <i name="bandstr">  -4377.68031098 </i>
    <i name="atom"> 136002.60505376 </i>
    <i name="e_fr_energy">   9681.98233201 </i>
    <i name="e_wo_entrp">   9682.41537410 </i>
    <i name="e_0_energy">   9682.19885305 </i>
   </energy>
  </scstep>
  <scstep>
   <time name="dav">    1.84    1.85</time>
   <time name="total">    1.84    1.85</time>
   <energy>
    <i name="e_fr_energy">    604.19908258 </i>
    <i name="e_wo_entrp">    604.89863832 </i>
    <i name="e_0_energy">    604.54886045 </i>
   </energy>
  </scstep>
  <scstep>
   <time name="dav">    1.94    1.95</time>
   <time name="total">    1.94    1.95</time>
   <energy>
    <i name="e_fr_energy">   -340.06746579 </i>
    <i name="e_wo_entrp">   -338.91061438 </i>
    <i name="e_0_energy">   -339.48904008 </i>
   </energy>
  </scstep>
  <scstep>
   <time name="dav">    2.03    2.04</time>
   <time name="total">    2.03    2.04</time>
   <energy>
    <i name="e_fr_energy">   -403.62570958 </i>
    <i name="e_wo_entrp">   -402.38968610 </i>
    <i name="e_0_energy">   -403.00769784 </i>
   </energy>
  </scstep>
  <scstep>
   <time name="dav">    2.09    2.10</time>
   <time name="total">    2.14    2.15</time>
   <energy>
    <i name="e_fr_energy">   -405.99381052 </i>
    <i name="e_wo_entrp">   -404.73854511 </i>
    <i name="e_0_energy">   -405.36617781 </i>
   </energy>
  </scstep>
  <scstep>
   <time name="dav">    2.06    2.07</time>
   <time name="total">    2.15    2.16</time>
   <energy>
    <i name="e_fr_energy">   -485.91338046 </i>
    <i name="e_wo_entrp">   -484.99885934 </i>
    <i name="e_0_energy">   -485.45611990 </i>
   </energy>
  </scstep>
  <scstep>
   <time name="dav">    2.01    2.02</time>
   <time name="total">    2.10    2.11</time>
   <energy>
    <i name="e_fr_energy">   -374.15739105 </i>
    <i name="e_wo_entrp">   -373.27587944 </i>
    <i name="e_0_energy">   -373.71663525 </i>
   </energy>
  </scstep>
  <scstep>
   <time name="dav">    2.33    2.34</time>
   <time name="total">    2.42    2.43</time>
   <energy>
    <i name="e_fr_energy">   -409.75737572 </i>
    <i name="e_wo_entrp">   -408.69988893 </i>
    <i name="e_0_energy">   -409.22863232 </i>
   </energy>
  </scstep>
  <scstep>
   <time name="dav">    2.19    2.19</time>
   <time name="total">    2.27    2.28</time>
   <energy>
    <i name="e_fr_energy">   -371.81835473 </i>
    <i name="e_wo_entrp">   -370.72180893 </i>
    <i name="e_0_energy">   -371.27008183 </i>
   </energy>
  </scstep>
  <scstep>
   <time name="dav">    2.38    2.39</time>
   <time name="total">    2.47    2.47</time>
   <energy>
    <i name="e_fr_energy">   -379.79325751 </i>
    <i name="e_wo_entrp">   -378.47107239 </i>
    <i name="e_0_energy">   -379.13216495 </i>
   </energy>
  </scstep>
  <scstep>
   <time name="dav">    2.25    2.25</time>
   <time name="total">    2.34    2.34</time>
   <energy>
    <i name="e_fr_energy">   -371.48286608 </i>
    <i name="e_wo_entrp">   -370.34873124 </i>
    <i name="e_0_energy">   -370.91579866 </i>
   </energy>
  </scstep>
  <scstep>
   <time name="dav">    2.32    2.32</time>
   <time name="total">    2.41    2.41</time>
   <energy>
    <i name="e_fr_energy">   -363.70687556 </i>
    <i name="e_wo_entrp">   -362.82359065 </i>
    <i name="e_0_energy">   -363.26523310 </i>
   </energy>
  </scstep>
  <scstep>
   <time name="dav">    2.21    2.21</time>
   <time name="total">    2.30    2.30</time>
   <energy>
    <i name="e_fr_energy">   -363.64340569 </i>
    <i name="e_wo_entrp">   -362.53613539 </i>
    <i name="e_0_energy">   -363.08977054 </i>
   </energy>
  </scstep>
  <scstep>
   <time name="dav">    2.06    2.06</time>
   <time name="total">    2.15    2.16</time>
   <energy>
    <i name="e_fr_energy">   -361.02864772 </i>
    <i name="e_wo_entrp">   -360.05748701 </i>
    <i name="e_0_energy">   -360.54306737 </i>
   </energy>
  </scstep>
  <scstep>
   <time name="dav">    2.21    2.22</time>
   <time name="total">    2.30    2.31</time>
   <energy>
    <i name="e_fr_energy">   -359.44933715 </i>
    <i name="e_wo_entrp">   -358.53911504 </i>
    <i name="e_0_energy">   -358.99422610 </i>
   </energy>
  </scstep>
  <scstep>
   <time name="dav">    2.18    2.19</time>
   <time name="total">    2.28    2.28</time>
   <energy>
    <i name="e_fr_energy">   -358.19524509 </i>
    <i name="e_wo_entrp">   -357.26258399 </i>
    <i name="e_0_energy">   -357.72891454 </i>
   </energy>
  </scstep>
  <scstep>
   <time name="dav">    2.26    2.27</time>
   <time name="total">    2.36    2.36</time>
   <energy>
    <i name="e_fr_energy">   -357.67127139 </i>
    <i name="e_wo_entrp">   -356.70859579 </i>
    <i name="e_0_energy">   -357.18993359 </i>
   </energy>
  </scstep>
  <scstep>
   <time name="dav">    2.25    2.26</time>
   <time name="total">    2.35    2.35</time>
   <energy>
    <i name="e_fr_energy">   -357.37235406 </i>
    <i name="e_wo_entrp">   -356.43829829 </i>
    <i name="e_0_energy">   -356.90532617 </i>
   </energy>
  </scstep>
  <scstep>
   <time name="dav">    2.28    2.28</time>
   <time name="total">    2.37    2.38</time>
   <energy>
    <i name="e_fr_energy">   -357.11578319 </i>
    <i name="e_wo_entrp">   -356.15142101 </i>
    <i name="e_0_energy">   -356.63360210 </i>
   </energy>
  </scstep>
  <scstep>
   <time name="dav">    2.37    2.37</time>
   <time name="total">    2.46    2.47</time>
   <energy>
    <i name="e_fr_energy">   -356.72589522 </i>
    <i name="e_wo_entrp">   -355.75714213 </i>
    <i name="e_0_energy">   -356.24151868 </i>
   </energy>
  </scstep>
  <scstep>
   <time name="dav">    2.27    2.27</time>
   <time name="total">    2.36    2.36</time>
   <energy>
    <i name="e_fr_energy">   -356.49581749 </i>
    <i name="e_wo_entrp">   -355.48702285 </i>
    <i name="e_0_energy">   -355.99142017 </i>
   </energy>
  </scstep>
  <scstep>
   <time name="dav">    2.33    2.33</time>
   <time name="total">    2.42    2.42</time>
   <energy>
    <i name="e_fr_energy">   -356.32039955 </i>
    <i name="e_wo_entrp">   -355.30667244 </i>
    <i name="e_0_energy">   -355.81353600 </i>
   </energy>
  </scstep>
  <scstep>
   <time name="dav">    2.16    2.17</time>
   <time name="total">    2.25    2.26</time>
   <energy>
    <i name="e_fr_energy">   -356.30888186 </i>
    <i name="e_wo_entrp">   -355.29210900 </i>
    <i name="e_0_energy">   -355.80049543 </i>
   </energy>
  </scstep>
  <scstep>
   <time name="dav">    2.01    2.01</time>
   <time name="total">    2.10    2.11</time>
   <energy>
    <i name="e_fr_energy">   -356.30565156 </i>
    <i name="e_wo_entrp">   -355.28585914 </i>
    <i name="e_0_energy">   -355.79575535 </i>
   </energy>
  </scstep>
  <scstep>
   <time name="dav">    2.25    2.25</time>
   <time name="total">    2.34    2.35</time>
   <energy>
    <i name="e_fr_energy">   -356.31725730 </i>
    <i name="e_wo_entrp">   -355.29766721 </i>
    <i name="e_0_energy">   -355.80746226 </i>
   </energy>
  </scstep>
  <scstep>
   <time name="dav">    2.33    2.33</time>
   <time name="total">    2.43    2.43</time>
   <energy>
    <i name="e_fr_energy">   -356.28638591 </i>
    <i name="e_wo_entrp">   -355.25663111 </i>
    <i name="e_0_energy">   -355.77150851 </i>
   </energy>
  </scstep>
  <scstep>
   <time name="dav">    2.28    2.29</time>
   <time name="total">    2.38    2.38</time>
   <energy>
    <i name="e_fr_energy">   -356.28244793 </i>
    <i name="e_wo_entrp">   -355.25077188 </i>
    <i name="e_0_energy">   -355.76660991 </i>
   </energy>
  </scstep>
  <scstep>
   <time name="dav">    2.26    2.27</time>
   <time name="total">    2.36    2.36</time>
   <energy>
    <i name="e_fr_energy">   -356.28149081 </i>
    <i name="e_wo_entrp">   -355.25768720 </i>
    <i name="e_0_energy">   -355.76958901 </i>
   </energy>
  </scstep>
  <scstep>
   <time name="dav">    2.14    2.14</time>
   <time name="total">    2.24    2.24</time>
   <energy>
    <i name="e_fr_energy">   -356.27664044 </i>
    <i name="e_wo_entrp">   -355.24942422 </i>
    <i name="e_0_energy">   -355.76303233 </i>
   </energy>
  </scstep>
  <scstep>
   <time name="dav">    2.20    2.21</time>
   <time name="total">    2.30    2.30</time>
   <energy>
    <i name="e_fr_energy">   -356.27715234 </i>
    <i name="e_wo_entrp">   -355.24948115 </i>
    <i name="e_0_energy">   -355.76331675 </i>
   </energy>
  </scstep>
  <scstep>
   <time name="dav">    2.14    2.14</time>
   <time name="total">    2.23    2.23</time>
   <energy>
    <i name="e_fr_energy">   -356.27614549 </i>
    <i name="e_wo_entrp">   -355.24764448 </i>
    <i name="e_0_energy">   -355.76189498 </i>
   </energy>
  </scstep>
  <scstep>
   <time name="dav">    2.18    2.19</time>
   <time name="total">    2.28    2.28</time>
   <energy>
    <i name="e_fr_energy">   -356.27710747 </i>
    <i name="e_wo_entrp">   -355.24928313 </i>
    <i name="e_0_energy">   -355.76319530 </i>
   </energy>
  </scstep>
  <scstep>
   <time name="dav">    1.89    1.89</time>
   <time name="total">    1.98    1.98</time>
   <energy>
    <i name="e_fr_energy">   -356.27639533 </i>
    <i name="e_wo_entrp">   -355.24793987 </i>
    <i name="e_0_energy">   -355.76216760 </i>
   </energy>
  </scstep>
  <scstep>
   <time name="dav">    1.70    1.71</time>
   <time name="total">    1.79    1.80</time>
   <energy>
    <i name="e_fr_energy">   -356.27680702 </i>
    <i name="e_wo_entrp">   -355.24839211 </i>
    <i name="e_0_energy">   -355.76259957 </i>
   </energy>
  </scstep>
  <scstep>
   <time name="dav">    1.44    1.44</time>
   <time name="total">    1.49    1.49</time>
   <energy>
    <i name="alphaZ">   1893.09323658 </i>
    <i name="ewald"> 164892.17340086 </i>
    <i name="hartreedc">-286767.27030843 </i>
    <i name="XCdc">   3622.69361924 </i>
    <i name="pawpsdc"> 130564.07328616 </i>
    <i name="pawaedc">-135533.91912238 </i>
    <i name="eentropy">     -1.02871250 </i>
    <i name="bandstr"> -15028.69730857 </i>
    <i name="atom"> 136002.60505376 </i>
    <i name="e_fr_energy">   -356.27685529 </i>
    <i name="e_wo_entrp">   -355.24814279 </i>
    <i name="e_0_energy">   -355.76249904 </i>
   </energy>
  </scstep>
  <structure>
   <crystal>
    <varray name="basis" >
     <v>       9.42510255       3.57329804       0.00000000 </v>
     <v>       0.00000000      10.07973298       0.00000000 </v>
     <v>       0.00000000       0.00000000      20.68350356 </v>
    </varray>
    <i name="volume">   1964.98490008 </i>
    <varray name="rec_basis" >
     <v>       0.10609964       0.00000000       0.00000000 </v>
     <v>      -0.03761267       0.09920898       0.00000000 </v>
     <v>       0.00000000       0.00000000       0.04834771 </v>
    </varray>
   </crystal>
   <varray name="positions" >
    <v>       0.24679038       0.94522030       0.00000000 </v>
    <v>       0.39705889       0.79495179       0.12693702 </v>
    <v>       0.54732740       0.64468328       0.25387405 </v>
    <v>       0.69759592       0.49441476       0.38081107 </v>
    <v>       0.84786443       0.34414625       0.50774810 </v>
    <v>       0.11381506       0.41152895       0.16924937 </v>
    <v>       0.26408358       0.26126044       0.29618639 </v>
    <v>       0.41435209       0.11099193       0.42312341 </v>
    <v>       0.96354655       0.56179746       0.04231234 </v>
    <v>       0.13110826       0.72756909       0.46543576 </v>
    <v>       0.68030272       0.17837463       0.08462468 </v>
    <v>       0.83057123       0.02810611       0.21156171 </v>
    <v>       0.98083975       0.87783760       0.33849873 </v>
    <v>       0.50762556       0.42017912       0.22033653 </v>
    <v>       0.65789407       0.26991061       0.34727355 </v>
    <v>       0.80816259       0.11964209       0.47421057 </v>
    <v>       0.07411322       0.18702479       0.13571184 </v>
    <v>       0.22438173       0.03675628       0.26264887 </v>
    <v>       0.37465024       0.88648777       0.38958589 </v>
    <v>       0.52491876       0.73621926       0.51652292 </v>
    <v>       0.09140642       0.50306493       0.43189823 </v>
    <v>       0.64060088       0.95387047       0.05108716 </v>
    <v>       0.79086939       0.80360196       0.17802418 </v>
    <v>       0.94113790       0.65333344       0.30496121 </v>
    <v>       0.03266674       0.15934394       0.44067305 </v>
    <v>       0.58186121       0.61014947       0.05986198 </v>
    <v>       0.73212972       0.45988096       0.18679900 </v>
    <v>       0.88239823       0.30961245       0.31373603 </v>
    <v>       0.29861738       0.22672664       0.10217432 </v>
    <v>       0.44888589       0.07645812       0.22911134 </v>
    <v>       0.59915440       0.92618961       0.35604837 </v>
    <v>       0.74942291       0.77592110       0.48298539 </v>
    <v>       0.01537355       0.84330380       0.14448666 </v>
    <v>       0.16564206       0.69303529       0.27142369 </v>
    <v>       0.31591057       0.54276677       0.39836071 </v>
    <v>       0.86510504       0.99357231       0.01754964 </v>
    <v>       0.03660483       0.95519385       0.49805764 </v>
    <v>       0.58579929       0.40599939       0.11724657 </v>
    <v>       0.73606781       0.25573087       0.24418359 </v>
    <v>       0.88633632       0.10546236       0.37112062 </v>
    <v>       0.15228695       0.17284506       0.03262188 </v>
    <v>       0.30255546       0.02257655       0.15955891 </v>
    <v>       0.45282398       0.87230804       0.28649593 </v>
    <v>       0.60309249       0.72203952       0.41343296 </v>
    <v>       0.01931164       0.63915371       0.20187125 </v>
    <v>       0.16958015       0.48888520       0.32880827 </v>
    <v>       0.31984866       0.33861669       0.45574530 </v>
    <v>       0.86904312       0.78942223       0.07493423 </v>
    <v>       0.48608562       0.84214306       0.03301497 </v>
    <v>       0.63635413       0.69187455       0.15995199 </v>
    <v>       0.78662264       0.54160604       0.28688901 </v>
    <v>       0.93689115       0.39133753       0.41382604 </v>
    <v>       0.20284179       0.45872023       0.07532731 </v>
    <v>       0.35311030       0.30845171       0.20226433 </v>
    <v>       0.50337881       0.15818320       0.32920136 </v>
    <v>       0.65364733       0.00791469       0.45613838 </v>
    <v>       0.06986647       0.92502888       0.24457667 </v>
    <v>       0.22013498       0.77476036       0.37151370 </v>
    <v>       0.37040350       0.62449185       0.49845072 </v>
    <v>       0.91959796       0.07529739       0.11763965 </v>
    <v>       0.20021045       0.79158823       0.07572039 </v>
    <v>       0.35047897       0.64131972       0.20265741 </v>
    <v>       0.50074748       0.49105120       0.32959444 </v>
    <v>       0.65101599       0.34078269       0.45653146 </v>
    <v>       0.06723514       0.25789688       0.24496975 </v>
    <v>       0.21750365       0.10762837       0.37190678 </v>
    <v>       0.36777216       0.95735985       0.49884380 </v>
    <v>       0.91696662       0.40816539       0.11803273 </v>
    <v>       0.48345428       0.17501107       0.03340805 </v>
    <v>       0.63372279       0.02474255       0.16034507 </v>
    <v>       0.78399131       0.87447404       0.28728210 </v>
    <v>       0.93425982       0.72420553       0.41421912 </v>
   </varray>
  </structure>
  <varray name="forces" >
   <v>      -0.01762742       0.34680373       2.14363093 </v>
   <v>      -0.29690073      -0.42443833      -0.22150330 </v>
   <v>      -0.18510220      -0.23618932      -0.04239779 </v>
   <v>       0.07516993      -0.15607007       0.38977975 </v>
   <v>      -0.55308679      -0.12982500      -1.80468477 </v>
   <v>       0.00353591       0.17176726      -0.29872692 </v>
   <v>      -0.02871573      -0.15397392      -0.07234719 </v>
   <v>      -0.02108964       0.06767214       0.57356772 </v>
   <v>       0.57862737      -0.03750352       1.82446848 </v>
   <v>       0.39794729       0.81876126      -0.44402259 </v>
   <v>      -0.52777643      -0.18305565       0.27384158 </v>
   <v>      -0.09204290      -0.01572264      -0.05201134 </v>
   <v>       0.05973717      -0.17556798      -0.10580566 </v>
   <v>      -0.12968463       0.26840252      -0.25569212 </v>
   <v>       0.30947797       0.03173234       0.19060011 </v>
   <v>       0.26684479      -0.58886999      -0.79516579 </v>
   <v>       0.00354836      -0.02746926      -0.33109936 </v>
   <v>       0.07353547       0.05456006       0.04154328 </v>
   <v>       0.05943140      -0.06362820       0.50188252 </v>
   <v>      -1.31924445       0.34693070      -1.74948868 </v>
   <v>       0.11382647      -0.58786878      -0.69412133 </v>
   <v>      -0.58071939       0.25647239       0.38260330 </v>
   <v>      -0.03360007      -0.01672373       0.02600758 </v>
   <v>       0.13747863       0.02682050       0.01621798 </v>
   <v>      -0.28772758      -0.79595150      -0.45760482 </v>
   <v>      -0.30384352       0.15369196       1.35799380 </v>
   <v>      -0.03989820      -0.04235495      -0.29664181 </v>
   <v>      -0.05158990      -0.17406171      -0.03649605 </v>
   <v>      -0.02366154       0.07176780      -0.54729445 </v>
   <v>      -0.09690553       0.02395418      -0.11797427 </v>
   <v>       0.18922161       0.07189550       0.17445588 </v>
   <v>      -0.65969000       0.48949018      -1.69699146 </v>
   <v>       0.07290421       0.23387821      -0.30515631 </v>
   <v>       0.02576486       0.02833113       0.01423484 </v>
   <v>      -0.02566223      -0.14611193       0.48946663 </v>
   <v>       0.27676408      -0.49404126       1.94393306 </v>
   <v>      -0.62687427       1.03947214       0.34748989 </v>
   <v>       0.71398606       0.22024167      -1.13187382 </v>
   <v>      -0.05320269       0.06726608       0.07191781 </v>
   <v>      -0.08693228       0.26670300      -0.00123208 </v>
   <v>       0.56664392      -1.20468903      -0.44553209 </v>
   <v>      -0.01394569       0.12956608      -0.04524952 </v>
   <v>       0.08661674       0.04164767       0.19084756 </v>
   <v>       0.45166076       0.13667485       1.06516388 </v>
   <v>      -0.01703943       0.08507254      -0.05967144 </v>
   <v>       0.20834904       0.30880947       0.10577764 </v>
   <v>      -0.58719712       0.82244455       0.35959204 </v>
   <v>      -0.34459928      -0.27433305      -1.98074221 </v>
   <v>       0.19869951      -0.62597913      -0.47035735 </v>
   <v>      -0.30004186      -0.26878276      -0.14555827 </v>
   <v>       0.00107271       0.14428488       0.12106611 </v>
   <v>       0.44070867      -0.14532379       1.60415727 </v>
   <v>      -1.00368175      -0.05029084      -0.19204813 </v>
   <v>      -0.03589922      -0.02759196       0.00605240 </v>
   <v>      -0.02085009      -0.07356001       0.02526845 </v>
   <v>       0.28820186      -0.41148315       0.71113467 </v>
   <v>       0.07482167       0.03350971       0.17155109 </v>
   <v>       0.02429132      -0.31725068       0.02656051 </v>
   <v>      -0.59600588      -0.06194462       0.13054208 </v>
   <v>      -0.57011133       0.24466929      -0.93066971 </v>
   <v>       0.22278872       0.68244172      -0.79153060 </v>
   <v>       0.28667623       0.38549823       0.33627266 </v>
   <v>       0.13417042       0.00914945      -0.10733459 </v>
   <v>       0.60292389       0.10664291       0.64740036 </v>
   <v>       0.00016212       0.10250229      -0.21215924 </v>
   <v>       0.09115533       0.12913549       0.12896825 </v>
   <v>       0.42696593      -0.42977851      -0.56690809 </v>
   <v>       0.04587290       0.63196516      -0.55713266 </v>
   <v>       1.11236402      -0.32425862       0.30121235 </v>
   <v>       0.38950497      -0.07810494       0.17410458 </v>
   <v>       0.14493912      -0.01614752      -0.01502787 </v>
   <v>       0.37455833      -0.29168270       1.10894661 </v>
  </varray>
  <varray name="stress" >
   <v>     -24.76408998       3.20066363      -7.99006091 </v>
   <v>       3.20066408     -25.64818504       6.31603663 </v>
   <v>      -7.99006076       6.31603625     -18.86487024 </v>
  </varray>
  <energy>
   <i name="e_fr_energy">   -356.27685529 </i>
   <i name="e_wo_entrp">   -355.24814279 </i>
   <i name="e_0_energy">   -355.76249904 </i>
  </energy>
  <time name="totalsc">   79.42   79.70</time>
  <eigenvalues>
   <array>
    <dimension dim="1">band</dimension>
    <dimension dim="2">kpoint</dimension>
    <dimension dim="3">spin</dimension>
    <field>eigene</field>
    <field>occ</field>
    <set>
     <set comment="spin 1">
      <set comment="kpoint 1">
       <r>  -62.7042    1.0000 </r>
       <r>  -62.7019    1.0000 </r>
       <r>  -62.7007    1.0000 </r>
       <r>  -62.6998    1.0000 </r>
       <r>  -62.6871    1.0000 </r>
       <r>  -62.6768    1.0000 </r>
       <r>  -62.6747    1.0000 </r>
       <r>  -62.6628    1.0000 </r>
       <r>  -62.6614    1.0000 </r>
       <r>  -62.6611    1.0000 </r>
       <r>  -62.6597    1.0000 </r>
       <r>  -62.6569    1.0000 </r>
       <r>  -62.6482    1.0000 </r>
       <r>  -62.6453    1.0000 </r>
       <r>  -62.6452    1.0000 </r>
       <r>  -62.6441    1.0000 </r>
       <r>  -62.6419    1.0000 </r>
       <r>  -62.6379    1.0000 </r>
       <r>  -62.6377    1.0000 </r>
       <r>  -62.6372    1.0000 </r>
       <r>  -62.6369    1.0000 </r>
       <r>  -62.6328    1.0000 </r>
       <r>  -62.6323    1.0000 </r>
       <r>  -62.6319    1.0000 </r>
       <r>  -62.6241    1.0000 </r>
       <r>  -62.6210    1.0000 </r>
       <r>  -62.6184    1.0000 </r>
       <r>  -62.6147    1.0000 </r>
       <r>  -62.6132    1.0000 </r>
       <r>  -62.6122    1.0000 </r>
       <r>  -62.6102    1.0000 </r>
       <r>  -62.6077    1.0000 </r>
       <r>  -62.6063    1.0000 </r>
       <r>  -62.6060    1.0000 </r>
       <r>  -62.6054    1.0000 </r>
       <r>  -62.5993    1.0000 </r>
       <r>  -62.5889    1.0000 </r>
       <r>  -62.5850    1.0000 </r>
       <r>  -62.5806    1.0000 </r>
       <r>  -62.5782    1.0000 </r>
       <r>  -62.5775    1.0000 </r>
       <r>  -62.5708    1.0000 </r>
       <r>  -62.5604    1.0000 </r>
       <r>  -62.5571    1.0000 </r>
       <r>  -62.5541    1.0000 </r>
       <r>  -62.5387    1.0000 </r>
       <r>  -62.5336    1.0000 </r>
       <r>  -62.5333    1.0000 </r>
       <r>  -62.5304    1.0000 </r>
       <r>  -62.5111    1.0000 </r>
       <r>  -62.5011    1.0000 </r>
       <r>  -62.4896    1.0000 </r>
       <r>  -62.4776    1.0000 </r>
       <r>  -62.4771    1.0000 </r>
       <r>  -62.4556    1.0000 </r>
       <r>  -62.4551    1.0000 </r>
       <r>  -62.4524    1.0000 </r>
       <r>  -62.4515    1.0000 </r>
       <r>  -62.4463    1.0000 </r>
       <r>  -62.4221    1.0000 </r>
       <r>  -62.4040    1.0000 </r>
       <r>  -62.4033    1.0000 </r>
       <r>  -62.4018    1.0000 </r>
       <r>  -62.3989    1.0000 </r>
       <r>  -62.3943    1.0000 </r>
       <r>  -62.3923    1.0000 </r>
       <r>  -62.3903    1.0000 </r>
       <r>  -62.3744    1.0000 </r>
       <r>  -62.3729    1.0000 </r>
       <r>  -62.3659    1.0000 </r>
       <r>  -62.3562    1.0000 </r>
       <r>  -62.3545    1.0000 </r>
       <r>  -62.3504    1.0000 </r>
       <r>  -62.3308    1.0000 </r>
       <r>  -62.3066    1.0000 </r>
       <r>  -62.3061    1.0000 </r>
       <r>  -62.2834    1.0000 </r>
       <r>  -62.2782    1.0000 </r>
       <r>  -62.2513    1.0000 </r>
       <r>  -62.2502    1.0000 </r>
       <r>  -62.1906    1.0000 </r>
       <r>  -62.1758    1.0000 </r>
       <r>  -62.1580    1.0000 </r>
       <r>  -62.1544    1.0000 </r>
       <r>  -62.1291    1.0000 </r>
       <r>  -62.0180    1.0000 </r>
       <r>  -61.9720    1.0000 </r>
       <r>  -61.9514    1.0000 </r>
       <r>  -61.9247    1.0000 </r>
       <r>  -61.8883    1.0000 </r>
       <r>  -61.8414    1.0000 </r>
       <r>  -61.8281    1.0000 </r>
       <r>  -61.8060    1.0000 </r>
       <r>  -61.7751    1.0000 </r>
       <r>  -61.7262    1.0000 </r>
       <r>  -61.6467    1.0000 </r>
       <r>  -61.6382    1.0000 </r>
       <r>  -61.6098    1.0000 </r>
       <r>  -61.5931    1.0000 </r>
       <r>  -61.5152    1.0000 </r>
       <r>  -61.5137    1.0000 </r>
       <r>  -61.4062    1.0000 </r>
       <r>  -61.3335    1.0000 </r>
       <r>  -61.3283    1.0000 </r>
       <r>  -61.3081    1.0000 </r>
       <r>  -61.3032    1.0000 </r>
       <r>  -61.3021    1.0000 </r>
       <r>  -61.2974    1.0000 </r>
       <r>  -13.9893    1.0000 </r>
       <r>  -13.3475    1.0000 </r>
       <r>  -13.1907    1.0000 </r>
       <r>  -13.1490    1.0000 </r>
       <r>  -13.0036    1.0000 </r>
       <r>  -12.9681    1.0000 </r>
       <r>  -12.7654    1.0000 </r>
       <r>  -12.7302    1.0000 </r>
       <r>  -12.6438    1.0000 </r>
       <r>  -12.6134    1.0000 </r>
       <r>  -12.5981    1.0000 </r>
       <r>  -12.4975    1.0000 </r>
       <r>  -12.4150    1.0000 </r>
       <r>  -12.2771    1.0000 </r>
       <r>  -12.2217    1.0000 </r>
       <r>  -12.1564    1.0000 </r>
       <r>  -12.1289    1.0000 </r>
       <r>  -12.0877    1.0000 </r>
       <r>  -12.0510    1.0000 </r>
       <r>  -12.0442    1.0000 </r>
       <r>  -11.9568    1.0000 </r>
       <r>  -11.8538    1.0000 </r>
       <r>  -11.7509    1.0000 </r>
       <r>  -11.7350    1.0000 </r>
       <r>  -11.7058    1.0000 </r>
       <r>  -11.6387    1.0000 </r>
       <r>  -11.5685    1.0000 </r>
       <r>  -11.4449    1.0000 </r>
       <r>  -11.3834    1.0000 </r>
       <r>  -11.1476    1.0000 </r>
       <r>  -11.1370    1.0000 </r>
       <r>  -11.0558    1.0000 </r>
       <r>  -10.9299    1.0000 </r>
       <r>  -10.9175    1.0000 </r>
       <r>  -10.7770    1.0000 </r>
       <r>  -10.6418    1.0000 </r>
       <r>   -5.7359    1.0000 </r>
       <r>   -5.6973    1.0000 </r>
       <r>   -5.6346    1.0000 </r>
       <r>   -5.4051    1.0000 </r>
       <r>   -5.3681    1.0000 </r>
       <r>   -5.2057    1.0000 </r>
       <r>   -5.1356    1.0000 </r>
       <r>   -5.1083    1.0000 </r>
       <r>   -5.0703    1.0000 </r>
       <r>   -4.9687    1.0000 </r>
       <r>   -4.8998    1.0000 </r>
       <r>   -4.8757    1.0000 </r>
       <r>   -4.8449    1.0000 </r>
       <r>   -4.7937    1.0000 </r>
       <r>   -4.7879    1.0000 </r>
       <r>   -4.7579    1.0000 </r>
       <r>   -4.7371    1.0000 </r>
       <r>   -4.6698    1.0000 </r>
       <r>   -4.6396    1.0000 </r>
       <r>   -4.5886    1.0000 </r>
       <r>   -4.5633    1.0000 </r>
       <r>   -4.5061    1.0000 </r>
       <r>   -4.5031    1.0000 </r>
       <r>   -4.4563    1.0000 </r>
       <r>   -4.4118    1.0000 </r>
       <r>   -4.3723    1.0000 </r>
       <r>   -4.3161    1.0000 </r>
       <r>   -4.2743    1.0000 </r>
       <r>   -4.2137    1.0000 </r>
       <r>   -4.0629    1.0000 </r>
       <r>   -3.9975    1.0000 </r>
       <r>   -3.9523    1.0000 </r>
       <r>   -3.9303    1.0000 </r>
       <r>   -3.8562    1.0000 </r>
       <r>   -3.8135    1.0000 </r>
       <r>   -3.7729    1.0000 </r>
       <r>   -3.7321    1.0000 </r>
       <r>   -3.6861    1.0000 </r>
       <r>   -3.6610    1.0000 </r>
       <r>   -3.6194    1.0000 </r>
       <r>   -3.5358    1.0000 </r>
       <r>   -3.5211    1.0000 </r>
       <r>   -3.4509    1.0000 </r>
       <r>   -3.3479    1.0000 </r>
       <r>   -3.3429    1.0000 </r>
       <r>   -3.3240    1.0000 </r>
       <r>   -3.2846    1.0000 </r>
       <r>   -3.2501    1.0000 </r>
       <r>   -3.1977    1.0000 </r>
       <r>   -3.1379    1.0000 </r>
       <r>   -3.1205    1.0000 </r>
       <r>   -3.1077    1.0000 </r>
       <r>   -3.0797    1.0000 </r>
       <r>   -3.0509    1.0000 </r>
       <r>   -3.0276    1.0000 </r>
       <r>   -2.9965    1.0000 </r>
       <r>   -2.9699    1.0000 </r>
       <r>   -2.9165    1.0000 </r>
       <r>   -2.9107    1.0000 </r>
       <r>   -2.8853    1.0000 </r>
       <r>   -2.8729    1.0000 </r>
       <r>   -2.8286    1.0000 </r>
       <r>   -2.8065    1.0000 </r>
       <r>   -2.7918    1.0000 </r>
       <r>   -2.7503    1.0000 </r>
       <r>   -2.7312    1.0000 </r>
       <r>   -2.7128    1.0000 </r>
       <r>   -2.6619    1.0000 </r>
       <r>   -2.6396    1.0000 </r>
       <r>   -2.6338    1.0000 </r>
       <r>   -2.6043    1.0000 </r>
       <r>   -2.5570    1.0000 </r>
       <r>   -2.5462    1.0000 </r>
       <r>   -2.5257    1.0000 </r>
       <r>   -2.4915    1.0000 </r>
       <r>   -2.4622    1.0000 </r>
       <r>   -2.4390    1.0000 </r>
       <r>   -2.4256    1.0000 </r>
       <r>   -2.4092    1.0000 </r>
       <r>   -2.3792    1.0000 </r>
       <r>   -2.3597    1.0000 </r>
       <r>   -2.3242    1.0000 </r>
       <r>   -2.2941    1.0000 </r>
       <r>   -2.2498    1.0000 </r>
       <r>   -2.2314    1.0000 </r>
       <r>   -2.1885    1.0000 </r>
       <r>   -2.1701    1.0000 </r>
       <r>   -2.1575    1.0000 </r>
       <r>   -2.1049    1.0000 </r>
       <r>   -2.0074    1.0000 </r>
       <r>   -2.0012    1.0000 </r>
       <r>   -1.9686    1.0000 </r>
       <r>   -1.9127    1.0000 </r>
       <r>   -1.8299    1.0000 </r>
       <r>   -1.8165    1.0000 </r>
       <r>   -1.7385    1.0000 </r>
       <r>   -1.7056    1.0000 </r>
       <r>   -1.6583    1.0000 </r>
       <r>   -1.6326    1.0000 </r>
       <r>   -1.5890    1.0000 </r>
       <r>   -1.5032    1.0000 </r>
       <r>   -1.4994    1.0000 </r>
       <r>   -1.4291    1.0000 </r>
       <r>   -1.4138    1.0000 </r>
       <r>   -1.3410    1.0000 </r>
       <r>   -1.3198    1.0000 </r>
       <r>   -1.2865    1.0000 </r>
       <r>   -1.2707    1.0000 </r>
       <r>   -1.2344    1.0000 </r>
       <r>   -1.2089    1.0000 </r>
       <r>   -1.1900    1.0000 </r>
       <r>   -1.1581    1.0000 </r>
       <r>   -1.1402    1.0000 </r>
       <r>   -1.0977    1.0000 </r>
       <r>   -1.0475    1.0000 </r>
       <r>   -1.0161    1.0000 </r>
       <r>   -1.0085    1.0000 </r>
       <r>   -0.9882    1.0000 </r>
       <r>   -0.9485    1.0000 </r>
       <r>   -0.9395    1.0000 </r>
       <r>   -0.9087    1.0000 </r>
       <r>   -0.8989    1.0000 </r>
       <r>   -0.8626    1.0000 </r>
       <r>   -0.8425    1.0000 </r>
       <r>   -0.8270    1.0000 </r>
       <r>   -0.8028    1.0000 </r>
       <r>   -0.7877    1.0000 </r>
       <r>   -0.7726    1.0000 </r>
       <r>   -0.7586    1.0000 </r>
       <r>   -0.7170    1.0000 </r>
       <r>   -0.7120    1.0000 </r>
       <r>   -0.7029    1.0000 </r>
       <r>   -0.6645    1.0000 </r>
       <r>   -0.6515    1.0000 </r>
       <r>   -0.6420    1.0000 </r>
       <r>   -0.6187    1.0000 </r>
       <r>   -0.6046    1.0000 </r>
       <r>   -0.5820    1.0000 </r>
       <r>   -0.5647    1.0000 </r>
       <r>   -0.5534    1.0000 </r>
       <r>   -0.5247    1.0000 </r>
       <r>   -0.5148    1.0000 </r>
       <r>   -0.5010    1.0000 </r>
       <r>   -0.4672    1.0000 </r>
       <r>   -0.4524    1.0000 </r>
       <r>   -0.4398    1.0000 </r>
       <r>   -0.4235    1.0000 </r>
       <r>   -0.4121    1.0000 </r>
       <r>   -0.4032    1.0000 </r>
       <r>   -0.3967    1.0000 </r>
       <r>   -0.3900    1.0000 </r>
       <r>   -0.3700    1.0000 </r>
       <r>   -0.3619    1.0000 </r>
       <r>   -0.3536    1.0000 </r>
       <r>   -0.3393    1.0000 </r>
       <r>   -0.3350    1.0000 </r>
       <r>   -0.3269    1.0000 </r>
       <r>   -0.3124    1.0000 </r>
       <r>   -0.3077    1.0000 </r>
       <r>   -0.2897    1.0000 </r>
       <r>   -0.2827    1.0000 </r>
       <r>   -0.2711    1.0000 </r>
       <r>   -0.2593    1.0000 </r>
       <r>   -0.2533    1.0000 </r>
       <r>   -0.2282    1.0000 </r>
       <r>   -0.2069    1.0000 </r>
       <r>   -0.2046    1.0000 </r>
       <r>   -0.1926    1.0000 </r>
       <r>   -0.1813    1.0000 </r>
       <r>   -0.1772    1.0000 </r>
       <r>   -0.1657    1.0000 </r>
       <r>   -0.1548    1.0000 </r>
       <r>   -0.1487    1.0000 </r>
       <r>   -0.1338    1.0000 </r>
       <r>   -0.1272    1.0000 </r>
       <r>   -0.1197    1.0000 </r>
       <r>   -0.1152    1.0000 </r>
       <r>   -0.1011    1.0000 </r>
       <r>   -0.0845    1.0000 </r>
       <r>   -0.0657    1.0000 </r>
       <r>   -0.0529    1.0000 </r>
       <r>   -0.0436    1.0000 </r>
       <r>   -0.0414    1.0000 </r>
       <r>   -0.0300    1.0000 </r>
       <r>   -0.0135    1.0000 </r>
       <r>    0.0011    1.0000 </r>
       <r>    0.0195    1.0000 </r>
       <r>    0.0278    1.0000 </r>
       <r>    0.0330    1.0000 </r>
       <r>    0.0475    1.0000 </r>
       <r>    0.0595    1.0000 </r>
       <r>    0.0675    1.0000 </r>
       <r>    0.0804    1.0000 </r>
       <r>    0.0914    1.0000 </r>
       <r>    0.1162    1.0000 </r>
       <r>    0.1173    1.0000 </r>
       <r>    0.1543    1.0000 </r>
       <r>    0.1584    1.0000 </r>
       <r>    0.1657    1.0000 </r>
       <r>    0.1820    1.0000 </r>
       <r>    0.2191    1.0000 </r>
       <r>    0.2263    1.0000 </r>
       <r>    0.2454    1.0000 </r>
       <r>    0.2550    1.0000 </r>
       <r>    0.2755    1.0000 </r>
       <r>    0.2849    1.0000 </r>
       <r>    0.3146    1.0000 </r>
       <r>    0.3358    1.0000 </r>
       <r>    0.3574    1.0000 </r>
       <r>    0.3848    1.0000 </r>
       <r>    0.4004    1.0000 </r>
       <r>    0.4343    1.0000 </r>
       <r>    0.4442    1.0000 </r>
       <r>    0.4674    1.0000 </r>
       <r>    0.4794    1.0000 </r>
       <r>    0.4979    1.0000 </r>
       <r>    0.5110    1.0000 </r>
       <r>    0.5294    1.0000 </r>
       <r>    0.5601    1.0000 </r>
       <r>    0.5854    1.0000 </r>
       <r>    0.5927    1.0000 </r>
       <r>    0.6134    1.0000 </r>
       <r>    0.6338    1.0000 </r>
       <r>    0.6408    1.0000 </r>
       <r>    0.6482    1.0000 </r>
       <r>    0.6699    1.0000 </r>
       <r>    0.6805    1.0000 </r>
       <r>    0.7044    1.0000 </r>
       <r>    0.7121    1.0000 </r>
       <r>    0.7548    1.0000 </r>
       <r>    0.7666    1.0000 </r>
       <r>    0.7784    1.0000 </r>
       <r>    0.8053    1.0000 </r>
       <r>    0.8213    1.0000 </r>
       <r>    0.8724    1.0000 </r>
       <r>    0.8810    1.0000 </r>
       <r>    0.9023    1.0000 </r>
       <r>    0.9203    0.9999 </r>
       <r>    0.9366    0.9999 </r>
       <r>    0.9575    0.9998 </r>
       <r>    1.0243    0.9991 </r>
       <r>    1.0325    0.9989 </r>
       <r>    1.0583    0.9980 </r>
       <r>    1.1301    0.9910 </r>
       <r>    1.1949    0.9719 </r>
       <r>    1.2528    0.9332 </r>
       <r>    1.2679    0.9182 </r>
       <r>    1.2931    0.8878 </r>
       <r>    1.3114    0.8611 </r>
       <r>    1.3514    0.7888 </r>
       <r>    1.3820    0.7212 </r>
       <r>    1.4546    0.5289 </r>
       <r>    1.4829    0.4492 </r>
       <r>    1.5465    0.2819 </r>
       <r>    1.5596    0.2515 </r>
       <r>    1.5949    0.1790 </r>
       <r>    1.6581    0.0860 </r>
       <r>    1.6793    0.0647 </r>
       <r>    1.7299    0.0305 </r>
       <r>    1.7389    0.0263 </r>
       <r>    1.7647    0.0170 </r>
       <r>    1.8087    0.0075 </r>
       <r>    1.8355    0.0044 </r>
       <r>    1.8731    0.0019 </r>
       <r>    1.8886    0.0014 </r>
       <r>    1.9237    0.0006 </r>
       <r>    1.9495    0.0003 </r>
       <r>    1.9784    0.0001 </r>
       <r>    1.9959    0.0001 </r>
       <r>    2.0705    0.0000 </r>
       <r>    2.1115    0.0000 </r>
       <r>    2.1330    0.0000 </r>
       <r>    2.1595    0.0000 </r>
       <r>    2.1900    0.0000 </r>
       <r>    2.2276    0.0000 </r>
       <r>    2.2510    0.0000 </r>
       <r>    2.2873    0.0000 </r>
       <r>    2.3388    0.0000 </r>
       <r>    2.3471    0.0000 </r>
       <r>    2.3887    0.0000 </r>
       <r>    2.4189    0.0000 </r>
       <r>    2.4330    0.0000 </r>
       <r>    2.4793    0.0000 </r>
       <r>    2.4911    0.0000 </r>
       <r>    2.5294    0.0000 </r>
       <r>    2.5683    0.0000 </r>
       <r>    2.6309    0.0000 </r>
       <r>    2.6829    0.0000 </r>
       <r>    2.9215    0.0000 </r>
       <r>    3.2029    0.0000 </r>
       <r>    3.6126    0.0000 </r>
       <r>    3.9647    0.0000 </r>
       <r>    4.2098    0.0000 </r>
       <r>    4.5748    0.0000 </r>
       <r>    4.6236    0.0000 </r>
       <r>    4.8053    0.0000 </r>
       <r>    4.8397    0.0000 </r>
       <r>    4.9051    0.0000 </r>
       <r>    5.0656    0.0000 </r>
       <r>    5.1672    0.0000 </r>
       <r>    5.4348    0.0000 </r>
       <r>    5.4769    0.0000 </r>
       <r>    5.6192    0.0000 </r>
       <r>    5.7284    0.0000 </r>
       <r>    5.7345    0.0000 </r>
       <r>    5.8004    0.0000 </r>
       <r>    5.9316    0.0000 </r>
       <r>    5.9833    0.0000 </r>
       <r>    6.0573    0.0000 </r>
       <r>    6.1222    0.0000 </r>
       <r>    6.1508    0.0000 </r>
       <r>    6.3120    0.0000 </r>
       <r>    6.3914    0.0000 </r>
       <r>    6.4235    0.0000 </r>
       <r>    6.4606    0.0000 </r>
       <r>    6.6227    0.0000 </r>
       <r>    6.6263    0.0000 </r>
       <r>    6.7079    0.0000 </r>
       <r>    6.7819    0.0000 </r>
       <r>    6.8226    0.0000 </r>
       <r>    6.9088    0.0000 </r>
       <r>    6.9538    0.0000 </r>
       <r>    6.9840    0.0000 </r>
       <r>    7.0665    0.0000 </r>
       <r>    7.0863    0.0000 </r>
       <r>    7.1171    0.0000 </r>
       <r>    7.2129    0.0000 </r>
       <r>    7.2299    0.0000 </r>
       <r>    7.2778    0.0000 </r>
       <r>    7.3157    0.0000 </r>
       <r>    7.3871    0.0000 </r>
       <r>    7.4079    0.0000 </r>
       <r>    7.4685    0.0000 </r>
       <r>    7.4955    0.0000 </r>
       <r>    7.5934    0.0000 </r>
       <r>    7.6376    0.0000 </r>
      </set>
     </set>
    </set>
   </array>
  </eigenvalues>
  <separator name="orbital magnetization" >
   <v name="MAGDIPOLOUT">      0.00000000      0.00000000      0.00000000</v>
  </separator>
  <dos>
   <i name="efermi">      1.46489041 </i>
   <total>
    <array>
     <dimension dim="1">gridpoints</dimension>
     <dimension dim="2">spin</dimension>
     <field>energy</field>
     <field>total</field>
     <field>integrated</field>
     <set>
      <set comment="spin 1">
       <r>   -66.2213     0.0000     0.0000 </r>
       <r>   -65.9634     0.0000     0.0000 </r>
       <r>   -65.7055     0.0000     0.0000 </r>
       <r>   -65.4475     0.0000     0.0000 </r>
       <r>   -65.1896     0.0000     0.0000 </r>
       <r>   -64.9317     0.0000     0.0000 </r>
       <r>   -64.6738     0.0000     0.0000 </r>
       <r>   -64.4159     0.0000     0.0000 </r>
       <r>   -64.1579     0.0000     0.0000 </r>
       <r>   -63.9000     0.0000     0.0000 </r>
       <r>   -63.6421     0.0000     0.0000 </r>
       <r>   -63.3842     0.0000     0.0000 </r>
       <r>   -63.1263     0.1231     0.0318 </r>
       <r>   -62.8683    18.4255     4.7841 </r>
       <r>   -62.6104   202.4757    57.0066 </r>
       <r>   -62.3525   292.4217   132.4280 </r>
       <r>   -62.0946   132.8623   166.6958 </r>
       <r>   -61.8367    59.9336   182.1539 </r>
       <r>   -61.5787    53.9324   196.0642 </r>
       <r>   -61.3208    48.8758   208.6702 </r>
       <r>   -61.0629    26.5002   215.5051 </r>
       <r>   -60.8050     1.9103   215.9978 </r>
       <r>   -60.5471     0.0084   216.0000 </r>
       <r>   -60.2891     0.0000   216.0000 </r>
       <r>   -60.0312     0.0000   216.0000 </r>
       <r>   -59.7733     0.0000   216.0000 </r>
       <r>   -59.5154     0.0000   216.0000 </r>
       <r>   -59.2575     0.0000   216.0000 </r>
       <r>   -58.9995     0.0000   216.0000 </r>
       <r>   -58.7416     0.0000   216.0000 </r>
       <r>   -58.4837     0.0000   216.0000 </r>
       <r>   -58.2258     0.0000   216.0000 </r>
       <r>   -57.9679     0.0000   216.0000 </r>
       <r>   -57.7099     0.0000   216.0000 </r>
       <r>   -57.4520     0.0000   216.0000 </r>
       <r>   -57.1941     0.0000   216.0000 </r>
       <r>   -56.9362     0.0000   216.0000 </r>
       <r>   -56.6783     0.0000   216.0000 </r>
       <r>   -56.4203     0.0000   216.0000 </r>
       <r>   -56.1624     0.0000   216.0000 </r>
       <r>   -55.9045     0.0000   216.0000 </r>
       <r>   -55.6466     0.0000   216.0000 </r>
       <r>   -55.3887     0.0000   216.0000 </r>
       <r>   -55.1307     0.0000   216.0000 </r>
       <r>   -54.8728     0.0000   216.0000 </r>
       <r>   -54.6149     0.0000   216.0000 </r>
       <r>   -54.3570     0.0000   216.0000 </r>
       <r>   -54.0991     0.0000   216.0000 </r>
       <r>   -53.8411     0.0000   216.0000 </r>
       <r>   -53.5832     0.0000   216.0000 </r>
       <r>   -53.3253     0.0000   216.0000 </r>
       <r>   -53.0674     0.0000   216.0000 </r>
       <r>   -52.8095     0.0000   216.0000 </r>
       <r>   -52.5515     0.0000   216.0000 </r>
       <r>   -52.2936     0.0000   216.0000 </r>
       <r>   -52.0357     0.0000   216.0000 </r>
       <r>   -51.7778     0.0000   216.0000 </r>
       <r>   -51.5199     0.0000   216.0000 </r>
       <r>   -51.2619     0.0000   216.0000 </r>
       <r>   -51.0040     0.0000   216.0000 </r>
       <r>   -50.7461     0.0000   216.0000 </r>
       <r>   -50.4882     0.0000   216.0000 </r>
       <r>   -50.2303     0.0000   216.0000 </r>
       <r>   -49.9723     0.0000   216.0000 </r>
       <r>   -49.7144     0.0000   216.0000 </r>
       <r>   -49.4565     0.0000   216.0000 </r>
       <r>   -49.1986     0.0000   216.0000 </r>
       <r>   -48.9407     0.0000   216.0000 </r>
       <r>   -48.6827     0.0000   216.0000 </r>
       <r>   -48.4248     0.0000   216.0000 </r>
       <r>   -48.1669     0.0000   216.0000 </r>
       <r>   -47.9090     0.0000   216.0000 </r>
       <r>   -47.6511     0.0000   216.0000 </r>
       <r>   -47.3931     0.0000   216.0000 </r>
       <r>   -47.1352     0.0000   216.0000 </r>
       <r>   -46.8773     0.0000   216.0000 </r>
       <r>   -46.6194     0.0000   216.0000 </r>
       <r>   -46.3615     0.0000   216.0000 </r>
       <r>   -46.1035     0.0000   216.0000 </r>
       <r>   -45.8456     0.0000   216.0000 </r>
       <r>   -45.5877     0.0000   216.0000 </r>
       <r>   -45.3298     0.0000   216.0000 </r>
       <r>   -45.0719     0.0000   216.0000 </r>
       <r>   -44.8139     0.0000   216.0000 </r>
       <r>   -44.5560     0.0000   216.0000 </r>
       <r>   -44.2981     0.0000   216.0000 </r>
       <r>   -44.0402     0.0000   216.0000 </r>
       <r>   -43.7823     0.0000   216.0000 </r>
       <r>   -43.5243     0.0000   216.0000 </r>
       <r>   -43.2664     0.0000   216.0000 </r>
       <r>   -43.0085     0.0000   216.0000 </r>
       <r>   -42.7506     0.0000   216.0000 </r>
       <r>   -42.4927     0.0000   216.0000 </r>
       <r>   -42.2347     0.0000   216.0000 </r>
       <r>   -41.9768     0.0000   216.0000 </r>
       <r>   -41.7189     0.0000   216.0000 </r>
       <r>   -41.4610     0.0000   216.0000 </r>
       <r>   -41.2031     0.0000   216.0000 </r>
       <r>   -40.9451     0.0000   216.0000 </r>
       <r>   -40.6872     0.0000   216.0000 </r>
       <r>   -40.4293     0.0000   216.0000 </r>
       <r>   -40.1714     0.0000   216.0000 </r>
       <r>   -39.9135     0.0000   216.0000 </r>
       <r>   -39.6555     0.0000   216.0000 </r>
       <r>   -39.3976     0.0000   216.0000 </r>
       <r>   -39.1397     0.0000   216.0000 </r>
       <r>   -38.8818     0.0000   216.0000 </r>
       <r>   -38.6239     0.0000   216.0000 </r>
       <r>   -38.3659     0.0000   216.0000 </r>
       <r>   -38.1080     0.0000   216.0000 </r>
       <r>   -37.8501     0.0000   216.0000 </r>
       <r>   -37.5922     0.0000   216.0000 </r>
       <r>   -37.3343     0.0000   216.0000 </r>
       <r>   -37.0763     0.0000   216.0000 </r>
       <r>   -36.8184     0.0000   216.0000 </r>
       <r>   -36.5605     0.0000   216.0000 </r>
       <r>   -36.3026     0.0000   216.0000 </r>
       <r>   -36.0447     0.0000   216.0000 </r>
       <r>   -35.7867     0.0000   216.0000 </r>
       <r>   -35.5288     0.0000   216.0000 </r>
       <r>   -35.2709     0.0000   216.0000 </r>
       <r>   -35.0130     0.0000   216.0000 </r>
       <r>   -34.7551     0.0000   216.0000 </r>
       <r>   -34.4971     0.0000   216.0000 </r>
       <r>   -34.2392     0.0000   216.0000 </r>
       <r>   -33.9813     0.0000   216.0000 </r>
       <r>   -33.7234     0.0000   216.0000 </r>
       <r>   -33.4655     0.0000   216.0000 </r>
       <r>   -33.2075     0.0000   216.0000 </r>
       <r>   -32.9496     0.0000   216.0000 </r>
       <r>   -32.6917     0.0000   216.0000 </r>
       <r>   -32.4338     0.0000   216.0000 </r>
       <r>   -32.1759     0.0000   216.0000 </r>
       <r>   -31.9179     0.0000   216.0000 </r>
       <r>   -31.6600     0.0000   216.0000 </r>
       <r>   -31.4021     0.0000   216.0000 </r>
       <r>   -31.1442     0.0000   216.0000 </r>
       <r>   -30.8863     0.0000   216.0000 </r>
       <r>   -30.6283     0.0000   216.0000 </r>
       <r>   -30.3704     0.0000   216.0000 </r>
       <r>   -30.1125     0.0000   216.0000 </r>
       <r>   -29.8546     0.0000   216.0000 </r>
       <r>   -29.5967     0.0000   216.0000 </r>
       <r>   -29.3387     0.0000   216.0000 </r>
       <r>   -29.0808     0.0000   216.0000 </r>
       <r>   -28.8229     0.0000   216.0000 </r>
       <r>   -28.5650     0.0000   216.0000 </r>
       <r>   -28.3071     0.0000   216.0000 </r>
       <r>   -28.0491     0.0000   216.0000 </r>
       <r>   -27.7912     0.0000   216.0000 </r>
       <r>   -27.5333     0.0000   216.0000 </r>
       <r>   -27.2754     0.0000   216.0000 </r>
       <r>   -27.0175     0.0000   216.0000 </r>
       <r>   -26.7595     0.0000   216.0000 </r>
       <r>   -26.5016     0.0000   216.0000 </r>
       <r>   -26.2437     0.0000   216.0000 </r>
       <r>   -25.9858     0.0000   216.0000 </r>
       <r>   -25.7279     0.0000   216.0000 </r>
       <r>   -25.4699     0.0000   216.0000 </r>
       <r>   -25.2120     0.0000   216.0000 </r>
       <r>   -24.9541     0.0000   216.0000 </r>
       <r>   -24.6962     0.0000   216.0000 </r>
       <r>   -24.4383     0.0000   216.0000 </r>
       <r>   -24.1803     0.0000   216.0000 </r>
       <r>   -23.9224     0.0000   216.0000 </r>
       <r>   -23.6645     0.0000   216.0000 </r>
       <r>   -23.4066     0.0000   216.0000 </r>
       <r>   -23.1487     0.0000   216.0000 </r>
       <r>   -22.8907     0.0000   216.0000 </r>
       <r>   -22.6328     0.0000   216.0000 </r>
       <r>   -22.3749     0.0000   216.0000 </r>
       <r>   -22.1170     0.0000   216.0000 </r>
       <r>   -21.8591     0.0000   216.0000 </r>
       <r>   -21.6011     0.0000   216.0000 </r>
       <r>   -21.3432     0.0000   216.0000 </r>
       <r>   -21.0853     0.0000   216.0000 </r>
       <r>   -20.8274     0.0000   216.0000 </r>
       <r>   -20.5695     0.0000   216.0000 </r>
       <r>   -20.3115     0.0000   216.0000 </r>
       <r>   -20.0536     0.0000   216.0000 </r>
       <r>   -19.7957     0.0000   216.0000 </r>
       <r>   -19.5378     0.0000   216.0000 </r>
       <r>   -19.2799     0.0000   216.0000 </r>
       <r>   -19.0219     0.0000   216.0000 </r>
       <r>   -18.7640     0.0000   216.0000 </r>
       <r>   -18.5061     0.0000   216.0000 </r>
       <r>   -18.2482     0.0000   216.0000 </r>
       <r>   -17.9903     0.0000   216.0000 </r>
       <r>   -17.7323     0.0000   216.0000 </r>
       <r>   -17.4744     0.0000   216.0000 </r>
       <r>   -17.2165     0.0000   216.0000 </r>
       <r>   -16.9586     0.0000   216.0000 </r>
       <r>   -16.7007     0.0000   216.0000 </r>
       <r>   -16.4427     0.0000   216.0000 </r>
       <r>   -16.1848     0.0000   216.0000 </r>
       <r>   -15.9269     0.0000   216.0000 </r>
       <r>   -15.6690     0.0000   216.0000 </r>
       <r>   -15.4111     0.0000   216.0000 </r>
       <r>   -15.1531     0.0000   216.0000 </r>
       <r>   -14.8952     0.0000   216.0000 </r>
       <r>   -14.6373     0.0000   216.0000 </r>
       <r>   -14.3794     0.0225   216.0058 </r>
       <r>   -14.1215     1.3342   216.3499 </r>
       <r>   -13.8635     4.9487   217.6263 </r>
       <r>   -13.6056     1.7045   218.0659 </r>
       <r>   -13.3477     5.3589   219.4480 </r>
       <r>   -13.0898    16.6736   223.7485 </r>
       <r>   -12.8319    20.1286   228.9401 </r>
       <r>   -12.5739    28.0924   236.1857 </r>
       <r>   -12.3160    27.1056   243.1767 </r>
       <r>   -12.0581    35.1882   252.2525 </r>
       <r>   -11.8002    34.0556   261.0361 </r>
       <r>   -11.5423    30.1862   268.8217 </r>
       <r>   -11.2843    19.9115   273.9573 </r>
       <r>   -11.0264    20.8894   279.3451 </r>
       <r>   -10.7685    21.2048   284.8142 </r>
       <r>   -10.5106    10.7228   287.5799 </r>
       <r>   -10.2527     1.6051   287.9939 </r>
       <r>    -9.9947     0.0238   288.0000 </r>
       <r>    -9.7368     0.0000   288.0000 </r>
       <r>    -9.4789     0.0000   288.0000 </r>
       <r>    -9.2210     0.0000   288.0000 </r>
       <r>    -8.9631     0.0000   288.0000 </r>
       <r>    -8.7051     0.0000   288.0000 </r>
       <r>    -8.4472     0.0000   288.0000 </r>
       <r>    -8.1893     0.0000   288.0000 </r>
       <r>    -7.9314     0.0000   288.0000 </r>
       <r>    -7.6735     0.0000   288.0000 </r>
       <r>    -7.4155     0.0000   288.0000 </r>
       <r>    -7.1576     0.0000   288.0000 </r>
       <r>    -6.8997     0.0000   288.0000 </r>
       <r>    -6.6418     0.0000   288.0000 </r>
       <r>    -6.3839     0.0000   288.0000 </r>
       <r>    -6.1259     0.0340   288.0088 </r>
       <r>    -5.8680     2.5942   288.6779 </r>
       <r>    -5.6101    14.6868   292.4659 </r>
       <r>    -5.3522    17.1141   296.8800 </r>
       <r>    -5.0943    25.6818   303.5038 </r>
       <r>    -4.8363    41.5107   314.2103 </r>
       <r>    -4.5784    53.5091   328.0113 </r>
       <r>    -4.3205    46.9939   340.1320 </r>
       <r>    -4.0626    31.2224   348.1849 </r>
       <r>    -3.8047    37.5423   357.8678 </r>
       <r>    -3.5467    43.5060   369.0889 </r>
       <r>    -3.2888    45.1556   380.7354 </r>
       <r>    -3.0309    61.5714   396.6159 </r>
       <r>    -2.7730    73.8661   415.6674 </r>
       <r>    -2.5151    77.0359   435.5365 </r>
       <r>    -2.2571    73.6737   454.5385 </r>
       <r>    -1.9992    54.5114   468.5980 </r>
       <r>    -1.7413    43.0435   479.6998 </r>
       <r>    -1.4834    45.4155   491.4134 </r>
       <r>    -1.2255    57.5419   506.2546 </r>
       <r>    -0.9675    73.5424   525.2226 </r>
       <r>    -0.7096    95.1836   549.7724 </r>
       <r>    -0.4517   122.4073   581.3437 </r>
       <r>    -0.1938   166.2303   624.2178 </r>
       <r>     0.0641   168.3248   667.6321 </r>
       <r>     0.3221   127.8640   700.6108 </r>
       <r>     0.5800   107.0396   728.2184 </r>
       <r>     0.8379   101.8682   754.4923 </r>
       <r>     1.0958    70.8089   772.7553 </r>
       <r>     1.3537    52.3216   786.2501 </r>
       <r>     1.6117    52.2558   799.7279 </r>
       <r>     1.8696    60.4230   815.3122 </r>
       <r>     2.1275    61.3668   831.1399 </r>
       <r>     2.3854    61.6812   847.0487 </r>
       <r>     2.6433    49.9935   859.9431 </r>
       <r>     2.9013    18.4629   864.7050 </r>
       <r>     3.1592     7.5981   866.6647 </r>
       <r>     3.4171     5.3194   868.0367 </r>
       <r>     3.6750     5.2126   869.3811 </r>
       <r>     3.9329     5.6925   870.8493 </r>
       <r>     4.1909     7.5345   872.7926 </r>
       <r>     4.4488     6.6838   874.5165 </r>
       <r>     4.7067    13.8848   878.0977 </r>
       <r>     4.9646    20.1543   883.2959 </r>
       <r>     5.2225    15.1913   887.2140 </r>
       <r>     5.4805    13.7009   890.7478 </r>
       <r>     5.7384    22.4321   896.5335 </r>
       <r>     5.9963    26.9249   903.4779 </r>
       <r>     6.2542    26.6492   910.3513 </r>
       <r>     6.5121    26.9332   917.2979 </r>
       <r>     6.7701    30.0733   925.0544 </r>
       <r>     7.0280    36.4790   934.4631 </r>
       <r>     7.2859    41.8182   945.2488 </r>
       <r>     7.5438    38.1357   955.0848 </r>
       <r>     7.8017    17.3321   959.5551 </r>
       <r>     8.0597     1.7099   959.9961 </r>
       <r>     8.3176     0.0152   960.0000 </r>
       <r>     8.5755     0.0000   960.0000 </r>
       <r>     8.8334     0.0000   960.0000 </r>
       <r>     9.0913     0.0000   960.0000 </r>
       <r>     9.3493     0.0000   960.0000 </r>
       <r>     9.6072     0.0000   960.0000 </r>
       <r>     9.8651     0.0000   960.0000 </r>
       <r>    10.1230     0.0000   960.0000 </r>
       <r>    10.3809     0.0000   960.0000 </r>
       <r>    10.6389     0.0000   960.0000 </r>
       <r>    10.8968     0.0000   960.0000 </r>
       <r>    11.1547     0.0000   960.0000 </r>
      </set>
     </set>
    </array>
   </total>
  </dos>
 </calculation>
 <structure name="finalpos" >
  <crystal>
   <varray name="basis" >
    <v>       9.42510255       3.57329804       0.00000000 </v>
    <v>       0.00000000      10.07973298       0.00000000 </v>
    <v>       0.00000000       0.00000000      20.68350356 </v>
   </varray>
   <i name="volume">   1964.98490008 </i>
   <varray name="rec_basis" >
    <v>       0.10609964       0.00000000       0.00000000 </v>
    <v>      -0.03761267       0.09920898       0.00000000 </v>
    <v>       0.00000000       0.00000000       0.04834771 </v>
   </varray>
  </crystal>
  <varray name="positions" >
   <v>       0.24679038       0.94522030       0.00000000 </v>
   <v>       0.39705889       0.79495179       0.12693702 </v>
   <v>       0.54732740       0.64468328       0.25387405 </v>
   <v>       0.69759592       0.49441476       0.38081107 </v>
   <v>       0.84786443       0.34414625       0.50774810 </v>
   <v>       0.11381506       0.41152895       0.16924937 </v>
   <v>       0.26408358       0.26126044       0.29618639 </v>
   <v>       0.41435209       0.11099193       0.42312341 </v>
   <v>       0.96354655       0.56179746       0.04231234 </v>
   <v>       0.13110826       0.72756909       0.46543576 </v>
   <v>       0.68030272       0.17837463       0.08462468 </v>
   <v>       0.83057123       0.02810611       0.21156171 </v>
   <v>       0.98083975       0.87783760       0.33849873 </v>
   <v>       0.50762556       0.42017912       0.22033653 </v>
   <v>       0.65789407       0.26991061       0.34727355 </v>
   <v>       0.80816259       0.11964209       0.47421057 </v>
   <v>       0.07411322       0.18702479       0.13571184 </v>
   <v>       0.22438173       0.03675628       0.26264887 </v>
   <v>       0.37465024       0.88648777       0.38958589 </v>
   <v>       0.52491876       0.73621926       0.51652292 </v>
   <v>       0.09140642       0.50306493       0.43189823 </v>
   <v>       0.64060088       0.95387047       0.05108716 </v>
   <v>       0.79086939       0.80360196       0.17802418 </v>
   <v>       0.94113790       0.65333344       0.30496121 </v>
   <v>       0.03266674       0.15934394       0.44067305 </v>
   <v>       0.58186121       0.61014947       0.05986198 </v>
   <v>       0.73212972       0.45988096       0.18679900 </v>
   <v>       0.88239823       0.30961245       0.31373603 </v>
   <v>       0.29861738       0.22672664       0.10217432 </v>
   <v>       0.44888589       0.07645812       0.22911134 </v>
   <v>       0.59915440       0.92618961       0.35604837 </v>
   <v>       0.74942291       0.77592110       0.48298539 </v>
   <v>       0.01537355       0.84330380       0.14448666 </v>
   <v>       0.16564206       0.69303529       0.27142369 </v>
   <v>       0.31591057       0.54276677       0.39836071 </v>
   <v>       0.86510504       0.99357231       0.01754964 </v>
   <v>       0.03660483       0.95519385       0.49805764 </v>
   <v>       0.58579929       0.40599939       0.11724657 </v>
   <v>       0.73606781       0.25573087       0.24418359 </v>
   <v>       0.88633632       0.10546236       0.37112062 </v>
   <v>       0.15228695       0.17284506       0.03262188 </v>
   <v>       0.30255546       0.02257655       0.15955891 </v>
   <v>       0.45282398       0.87230804       0.28649593 </v>
   <v>       0.60309249       0.72203952       0.41343296 </v>
   <v>       0.01931164       0.63915371       0.20187125 </v>
   <v>       0.16958015       0.48888520       0.32880827 </v>
   <v>       0.31984866       0.33861669       0.45574530 </v>
   <v>       0.86904312       0.78942223       0.07493423 </v>
   <v>       0.48608562       0.84214306       0.03301497 </v>
   <v>       0.63635413       0.69187455       0.15995199 </v>
   <v>       0.78662264       0.54160604       0.28688901 </v>
   <v>       0.93689115       0.39133753       0.41382604 </v>
   <v>       0.20284179       0.45872023       0.07532731 </v>
   <v>       0.35311030       0.30845171       0.20226433 </v>
   <v>       0.50337881       0.15818320       0.32920136 </v>
   <v>       0.65364733       0.00791469       0.45613838 </v>
   <v>       0.06986647       0.92502888       0.24457667 </v>
   <v>       0.22013498       0.77476036       0.37151370 </v>
   <v>       0.37040350       0.62449185       0.49845072 </v>
   <v>       0.91959796       0.07529739       0.11763965 </v>
   <v>       0.20021045       0.79158823       0.07572039 </v>
   <v>       0.35047897       0.64131972       0.20265741 </v>
   <v>       0.50074748       0.49105120       0.32959444 </v>
   <v>       0.65101599       0.34078269       0.45653146 </v>
   <v>       0.06723514       0.25789688       0.24496975 </v>
   <v>       0.21750365       0.10762837       0.37190678 </v>
   <v>       0.36777216       0.95735985       0.49884380 </v>
   <v>       0.91696662       0.40816539       0.11803273 </v>
   <v>       0.48345428       0.17501107       0.03340805 </v>
   <v>       0.63372279       0.02474255       0.16034507 </v>
   <v>       0.78399131       0.87447404       0.28728210 </v>
   <v>       0.93425982       0.72420553       0.41421912 </v>
  </varray>
 </structure>
</modeling>
