  72  72   0   0
  0.2706271E+02  0.1007973E-08  0.1007973E-08  0.2051014E-08  0.5000000E-15
  1.000000000000000E-004
  CAR 
 "Millerite NiS"                         
     11.04045845    -66.41298595  301      1.27739102      1.00000000
    -66.413  0.0000E+00  0.0000E+00
    -66.155  0.0000E+00  0.0000E+00
    -65.897  0.0000E+00  0.0000E+00
    -65.638  0.0000E+00  0.0000E+00
    -65.380  0.0000E+00  0.0000E+00
    -65.122  0.0000E+00  0.0000E+00
    -64.864  0.0000E+00  0.0000E+00
    -64.606  0.0000E+00  0.0000E+00
    -64.348  0.0000E+00  0.0000E+00
    -64.089  0.0000E+00  0.0000E+00
    -63.831  0.3067E-09  0.7920E-10
    -63.573  0.2066E-04  0.5333E-05
    -63.315  0.6507E-01  0.1681E-01
    -63.057  0.1133E+02  0.2942E+01
    -62.798  0.1510E+03  0.4192E+02
    -62.540  0.2851E+03  0.1155E+03
    -62.282  0.1836E+03  0.1629E+03
    -62.024  0.8482E+02  0.1848E+03
    -61.766  0.6311E+02  0.2011E+03
    -61.508  0.2979E+02  0.2088E+03
    -61.249  0.1147E+02  0.2118E+03
    -60.991  0.9716E+01  0.2143E+03
    -60.733  0.6302E+01  0.2159E+03
    -60.475  0.3685E+00  0.2160E+03
    -60.217  0.1201E-02  0.2160E+03
    -59.959  0.1768E-06  0.2160E+03
    -59.700  0.1063E-11  0.2160E+03
    -59.442  0.0000E+00  0.2160E+03
    -59.184  0.0000E+00  0.2160E+03
    -58.926  0.0000E+00  0.2160E+03
    -58.668  0.0000E+00  0.2160E+03
    -58.409  0.0000E+00  0.2160E+03
    -58.151  0.0000E+00  0.2160E+03
    -57.893  0.0000E+00  0.2160E+03
    -57.635  0.0000E+00  0.2160E+03
    -57.377  0.0000E+00  0.2160E+03
    -57.119  0.0000E+00  0.2160E+03
    -56.860  0.0000E+00  0.2160E+03
    -56.602  0.0000E+00  0.2160E+03
    -56.344  0.0000E+00  0.2160E+03
    -56.086  0.0000E+00  0.2160E+03
    -55.828  0.0000E+00  0.2160E+03
    -55.570  0.0000E+00  0.2160E+03
    -55.311  0.0000E+00  0.2160E+03
    -55.053  0.0000E+00  0.2160E+03
    -54.795  0.0000E+00  0.2160E+03
    -54.537  0.0000E+00  0.2160E+03
    -54.279  0.0000E+00  0.2160E+03
    -54.020  0.0000E+00  0.2160E+03
    -53.762  0.0000E+00  0.2160E+03
    -53.504  0.0000E+00  0.2160E+03
    -53.246  0.0000E+00  0.2160E+03
    -52.988  0.0000E+00  0.2160E+03
    -52.730  0.0000E+00  0.2160E+03
    -52.471  0.0000E+00  0.2160E+03
    -52.213  0.0000E+00  0.2160E+03
    -51.955  0.0000E+00  0.2160E+03
    -51.697  0.0000E+00  0.2160E+03
    -51.439  0.0000E+00  0.2160E+03
    -51.180  0.0000E+00  0.2160E+03
    -50.922  0.0000E+00  0.2160E+03
    -50.664  0.0000E+00  0.2160E+03
    -50.406  0.0000E+00  0.2160E+03
    -50.148  0.0000E+00  0.2160E+03
    -49.890  0.0000E+00  0.2160E+03
    -49.631  0.0000E+00  0.2160E+03
    -49.373  0.0000E+00  0.2160E+03
    -49.115  0.0000E+00  0.2160E+03
    -48.857  0.0000E+00  0.2160E+03
    -48.599  0.0000E+00  0.2160E+03
    -48.341  0.0000E+00  0.2160E+03
    -48.082  0.0000E+00  0.2160E+03
    -47.824  0.0000E+00  0.2160E+03
    -47.566  0.0000E+00  0.2160E+03
    -47.308  0.0000E+00  0.2160E+03
    -47.050  0.0000E+00  0.2160E+03
    -46.791  0.0000E+00  0.2160E+03
    -46.533  0.0000E+00  0.2160E+03
    -46.275  0.0000E+00  0.2160E+03
    -46.017  0.0000E+00  0.2160E+03
    -45.759  0.0000E+00  0.2160E+03
    -45.501  0.0000E+00  0.2160E+03
    -45.242  0.0000E+00  0.2160E+03
    -44.984  0.0000E+00  0.2160E+03
    -44.726  0.0000E+00  0.2160E+03
    -44.468  0.0000E+00  0.2160E+03
    -44.210  0.0000E+00  0.2160E+03
    -43.951  0.0000E+00  0.2160E+03
    -43.693  0.0000E+00  0.2160E+03
    -43.435  0.0000E+00  0.2160E+03
    -43.177  0.0000E+00  0.2160E+03
    -42.919  0.0000E+00  0.2160E+03
    -42.661  0.0000E+00  0.2160E+03
    -42.402  0.0000E+00  0.2160E+03
    -42.144  0.0000E+00  0.2160E+03
    -41.886  0.0000E+00  0.2160E+03
    -41.628  0.0000E+00  0.2160E+03
    -41.370  0.0000E+00  0.2160E+03
    -41.112  0.0000E+00  0.2160E+03
    -40.853  0.0000E+00  0.2160E+03
    -40.595  0.0000E+00  0.2160E+03
    -40.337  0.0000E+00  0.2160E+03
    -40.079  0.0000E+00  0.2160E+03
    -39.821  0.0000E+00  0.2160E+03
    -39.562  0.0000E+00  0.2160E+03
    -39.304  0.0000E+00  0.2160E+03
    -39.046  0.0000E+00  0.2160E+03
    -38.788  0.0000E+00  0.2160E+03
    -38.530  0.0000E+00  0.2160E+03
    -38.272  0.0000E+00  0.2160E+03
    -38.013  0.0000E+00  0.2160E+03
    -37.755  0.0000E+00  0.2160E+03
    -37.497  0.0000E+00  0.2160E+03
    -37.239  0.0000E+00  0.2160E+03
    -36.981  0.0000E+00  0.2160E+03
    -36.722  0.0000E+00  0.2160E+03
    -36.464  0.0000E+00  0.2160E+03
    -36.206  0.0000E+00  0.2160E+03
    -35.948  0.0000E+00  0.2160E+03
    -35.690  0.0000E+00  0.2160E+03
    -35.432  0.0000E+00  0.2160E+03
    -35.173  0.0000E+00  0.2160E+03
    -34.915  0.0000E+00  0.2160E+03
    -34.657  0.0000E+00  0.2160E+03
    -34.399  0.0000E+00  0.2160E+03
    -34.141  0.0000E+00  0.2160E+03
    -33.883  0.0000E+00  0.2160E+03
    -33.624  0.0000E+00  0.2160E+03
    -33.366  0.0000E+00  0.2160E+03
    -33.108  0.0000E+00  0.2160E+03
    -32.850  0.0000E+00  0.2160E+03
    -32.592  0.0000E+00  0.2160E+03
    -32.333  0.0000E+00  0.2160E+03
    -32.075  0.0000E+00  0.2160E+03
    -31.817  0.0000E+00  0.2160E+03
    -31.559  0.0000E+00  0.2160E+03
    -31.301  0.0000E+00  0.2160E+03
    -31.043  0.0000E+00  0.2160E+03
    -30.784  0.0000E+00  0.2160E+03
    -30.526  0.0000E+00  0.2160E+03
    -30.268  0.0000E+00  0.2160E+03
    -30.010  0.0000E+00  0.2160E+03
    -29.752  0.0000E+00  0.2160E+03
    -29.494  0.0000E+00  0.2160E+03
    -29.235  0.0000E+00  0.2160E+03
    -28.977  0.0000E+00  0.2160E+03
    -28.719  0.0000E+00  0.2160E+03
    -28.461  0.0000E+00  0.2160E+03
    -28.203  0.0000E+00  0.2160E+03
    -27.944  0.0000E+00  0.2160E+03
    -27.686  0.0000E+00  0.2160E+03
    -27.428  0.0000E+00  0.2160E+03
    -27.170  0.0000E+00  0.2160E+03
    -26.912  0.0000E+00  0.2160E+03
    -26.654  0.0000E+00  0.2160E+03
    -26.395  0.0000E+00  0.2160E+03
    -26.137  0.0000E+00  0.2160E+03
    -25.879  0.0000E+00  0.2160E+03
    -25.621  0.0000E+00  0.2160E+03
    -25.363  0.0000E+00  0.2160E+03
    -25.104  0.0000E+00  0.2160E+03
    -24.846  0.0000E+00  0.2160E+03
    -24.588  0.0000E+00  0.2160E+03
    -24.330  0.0000E+00  0.2160E+03
    -24.072  0.0000E+00  0.2160E+03
    -23.814  0.0000E+00  0.2160E+03
    -23.555  0.0000E+00  0.2160E+03
    -23.297  0.0000E+00  0.2160E+03
    -23.039  0.0000E+00  0.2160E+03
    -22.781  0.0000E+00  0.2160E+03
    -22.523  0.0000E+00  0.2160E+03
    -22.265  0.0000E+00  0.2160E+03
    -22.006  0.0000E+00  0.2160E+03
    -21.748  0.0000E+00  0.2160E+03
    -21.490  0.0000E+00  0.2160E+03
    -21.232  0.0000E+00  0.2160E+03
    -20.974  0.0000E+00  0.2160E+03
    -20.715  0.0000E+00  0.2160E+03
    -20.457  0.0000E+00  0.2160E+03
    -20.199  0.0000E+00  0.2160E+03
    -19.941  0.0000E+00  0.2160E+03
    -19.683  0.0000E+00  0.2160E+03
    -19.425  0.0000E+00  0.2160E+03
    -19.166  0.0000E+00  0.2160E+03
    -18.908  0.0000E+00  0.2160E+03
    -18.650  0.0000E+00  0.2160E+03
    -18.392  0.0000E+00  0.2160E+03
    -18.134  0.0000E+00  0.2160E+03
    -17.875  0.0000E+00  0.2160E+03
    -17.617  0.0000E+00  0.2160E+03
    -17.359  0.0000E+00  0.2160E+03
    -17.101  0.0000E+00  0.2160E+03
    -16.843  0.0000E+00  0.2160E+03
    -16.585  0.0000E+00  0.2160E+03
    -16.326  0.0000E+00  0.2160E+03
    -16.068  0.0000E+00  0.2160E+03
    -15.810  0.0000E+00  0.2160E+03
    -15.552  0.0000E+00  0.2160E+03
    -15.294  0.2580E-14  0.2160E+03
    -15.036  0.1496E-08  0.2160E+03
    -14.777  0.3584E-04  0.2160E+03
    -14.519  0.3521E-01  0.2160E+03
    -14.261  0.1645E+01  0.2164E+03
    -14.003  0.4917E+01  0.2177E+03
    -13.745  0.1462E+01  0.2181E+03
    -13.486  0.6106E+01  0.2197E+03
    -13.228  0.1808E+02  0.2243E+03
    -12.970  0.2070E+02  0.2297E+03
    -12.712  0.2873E+02  0.2371E+03
    -12.454  0.2589E+02  0.2438E+03
    -12.196  0.3426E+02  0.2526E+03
    -11.937  0.3403E+02  0.2614E+03
    -11.679  0.2416E+02  0.2676E+03
    -11.421  0.2017E+02  0.2728E+03
    -11.163  0.1738E+02  0.2773E+03
    -10.905  0.1849E+02  0.2821E+03
    -10.647  0.1152E+02  0.2851E+03
    -10.388  0.5219E+01  0.2864E+03
    -10.130  0.5050E+01  0.2877E+03
     -9.872  0.1025E+01  0.2880E+03
     -9.614  0.1297E-01  0.2880E+03
     -9.356  0.7525E-05  0.2880E+03
     -9.097  0.1763E-09  0.2880E+03
     -8.839  0.0000E+00  0.2880E+03
     -8.581  0.0000E+00  0.2880E+03
     -8.323  0.0000E+00  0.2880E+03
     -8.065  0.0000E+00  0.2880E+03
     -7.807  0.0000E+00  0.2880E+03
     -7.548  0.0000E+00  0.2880E+03
     -7.290  0.0000E+00  0.2880E+03
     -7.032  0.3870E-14  0.2880E+03
     -6.774  0.2392E-08  0.2880E+03
     -6.516  0.5527E-04  0.2880E+03
     -6.257  0.5722E-01  0.2880E+03
     -5.999  0.3282E+01  0.2889E+03
     -5.741  0.1555E+02  0.2929E+03
     -5.483  0.1841E+02  0.2976E+03
     -5.225  0.2772E+02  0.3048E+03
     -4.967  0.4319E+02  0.3159E+03
     -4.708  0.5099E+02  0.3291E+03
     -4.450  0.4312E+02  0.3402E+03
     -4.192  0.3358E+02  0.3489E+03
     -3.934  0.3962E+02  0.3591E+03
     -3.676  0.3615E+02  0.3685E+03
     -3.418  0.4247E+02  0.3794E+03
     -3.159  0.6542E+02  0.3963E+03
     -2.901  0.7429E+02  0.4155E+03
     -2.643  0.7663E+02  0.4353E+03
     -2.385  0.6410E+02  0.4518E+03
     -2.127  0.5044E+02  0.4649E+03
     -1.868  0.4524E+02  0.4765E+03
     -1.610  0.4972E+02  0.4894E+03
     -1.352  0.6422E+02  0.5060E+03
     -1.094  0.7659E+02  0.5257E+03
     -0.836  0.9583E+02  0.5505E+03
     -0.578  0.1249E+03  0.5827E+03
     -0.319  0.1642E+03  0.6251E+03
     -0.061  0.1708E+03  0.6692E+03
      0.197  0.1353E+03  0.7042E+03
      0.455  0.1018E+03  0.7304E+03
      0.713  0.8820E+02  0.7532E+03
      0.972  0.7812E+02  0.7734E+03
      1.230  0.6185E+02  0.7893E+03
      1.488  0.5507E+02  0.8036E+03
      1.746  0.5568E+02  0.8179E+03
      2.004  0.5869E+02  0.8331E+03
      2.262  0.6079E+02  0.8488E+03
      2.521  0.4546E+02  0.8605E+03
      2.779  0.1465E+02  0.8643E+03
      3.037  0.5480E+01  0.8657E+03
      3.295  0.1067E+01  0.8660E+03
      3.553  0.7981E+00  0.8662E+03
      3.811  0.6528E+01  0.8679E+03
      4.070  0.7935E+01  0.8699E+03
      4.328  0.1107E+02  0.8728E+03
      4.586  0.2007E+02  0.8780E+03
      4.844  0.1788E+02  0.8826E+03
      5.102  0.1440E+02  0.8863E+03
      5.361  0.1746E+02  0.8908E+03
      5.619  0.1663E+02  0.8951E+03
      5.877  0.2284E+02  0.9010E+03
      6.135  0.2845E+02  0.9084E+03
      6.393  0.2968E+02  0.9160E+03
      6.651  0.3049E+02  0.9239E+03
      6.910  0.3296E+02  0.9324E+03
      7.168  0.3568E+02  0.9416E+03
      7.426  0.4464E+02  0.9531E+03
      7.684  0.2407E+02  0.9593E+03
      7.942  0.2498E+01  0.9600E+03
      8.200  0.2177E-01  0.9600E+03
      8.459  0.9865E-05  0.9600E+03
      8.717  0.1905E-09  0.9600E+03
      8.975  0.0000E+00  0.9600E+03
      9.233  0.0000E+00  0.9600E+03
      9.491  0.0000E+00  0.9600E+03
      9.750  0.0000E+00  0.9600E+03
     10.008  0.0000E+00  0.9600E+03
     10.266  0.0000E+00  0.9600E+03
     10.524  0.0000E+00  0.9600E+03
     10.782  0.0000E+00  0.9600E+03
     11.040  0.0000E+00  0.9600E+03
