<?xml version="1.0" encoding="ISO-8859-1"?>
<modeling>
 <generator>
  <i name="program" type="string">vasp </i>
  <i name="version" type="string">6.1.0  </i>
  <i name="subversion" type="string">28Jan20 (build Mar 31 2020 17:42:31) gamma-only                       parallel </i>
  <i name="platform" type="string">LinuxIFC </i>
  <i name="date" type="string">2020 04 12 </i>
  <i name="time" type="string">16:17:21 </i>
 </generator>
 <incar>
  <i type="string" name="SYSTEM">"Millerite NiS"</i>
  <i type="int" name="NSIM">     4</i>
  <i type="int" name="NELM">   100</i>
  <i name="ENCUT">    450.00000000</i>
  <i type="string" name="LREAL">A</i>
  <i type="int" name="ISMEAR">     0</i>
  <i type="int" name="NWRITE">     2</i>
  <i type="logical" name="LWAVE"> F  </i>
  <i type="logical" name="LCHARG"> F  </i>
  <i type="int" name="NCORE">     6</i>
  <i type="int" name="NELM">   100</i>
 </incar>
 <structure name="primitive_cell" >
  <crystal>
   <varray name="basis" >
    <v>       9.42510255       3.57329804       0.00000000 </v>
    <v>       0.00000000      10.07973298       0.00000000 </v>
    <v>       0.00000000       0.00000000      20.51013988 </v>
   </varray>
   <i name="volume">   1948.51491473 </i>
   <varray name="rec_basis" >
    <v>       0.10609964       0.00000000       0.00000000 </v>
    <v>      -0.03761267       0.09920898       0.00000000 </v>
    <v>       0.00000000       0.00000000       0.04875637 </v>
   </varray>
  </crystal>
  <varray name="positions" >
   <v>       0.37433215       0.75136220       0.09511235 </v>
   <v>       0.52460066       0.60109368       0.22312232 </v>
   <v>       0.67486918       0.45082517       0.35113229 </v>
   <v>       0.82513769       0.30055666       0.47914226 </v>
   <v>       0.60748648       0.18487454       0.00977237 </v>
   <v>       0.75775499       0.03460603       0.13778234 </v>
   <v>       0.05829201       0.73406900       0.39380228 </v>
   <v>       0.90802350       0.88433751       0.26579231 </v>
   <v>       0.14117783       0.31784985       0.18045233 </v>
   <v>       0.29144634       0.16758134       0.30846230 </v>
   <v>       0.44171485       0.01731283       0.43647227 </v>
   <v>       0.99090931       0.46811837       0.05244236 </v>
   <v>       0.00994000       0.11575434       0.41150025 </v>
   <v>       0.55913447       0.56655988       0.02747034 </v>
   <v>       0.70940298       0.41629137       0.15548031 </v>
   <v>       0.85967149       0.26602286       0.28349028 </v>
   <v>       0.09282582       0.69953520       0.19815030 </v>
   <v>       0.24309433       0.54926668       0.32616027 </v>
   <v>       0.39336284       0.39899817       0.45417024 </v>
   <v>       0.94255730       0.84980371       0.07014033 </v>
   <v>       0.32598014       0.13304754       0.11281032 </v>
   <v>       0.47624865       0.98277903       0.24082029 </v>
   <v>       0.62651717       0.83251052       0.36883026 </v>
   <v>       0.77678568       0.68224200       0.49684023 </v>
   <v>       0.04964185       0.34025850       0.44532126 </v>
   <v>       0.59883631       0.79106404       0.06129134 </v>
   <v>       0.74910482       0.64079553       0.18930132 </v>
   <v>       0.89937333       0.49052701       0.31731129 </v>
   <v>       0.98225915       0.07430787       0.10396133 </v>
   <v>       0.13252766       0.92403935       0.23197131 </v>
   <v>       0.28279617       0.77377084       0.35998128 </v>
   <v>       0.43306468       0.62350233       0.48799125 </v>
   <v>       0.21541347       0.50782021       0.01862135 </v>
   <v>       0.36568198       0.35755170       0.14663132 </v>
   <v>       0.51595050       0.20728318       0.27464130 </v>
   <v>       0.66621901       0.05701467       0.40265127 </v>
   <v>       0.06382158       0.26208477       0.34135992 </v>
   <v>       0.21409009       0.11181626       0.46936989 </v>
   <v>       0.76328455       0.56262179       0.08533998 </v>
   <v>       0.91355307       0.41235328       0.21334995 </v>
   <v>       0.14670739       0.84586562       0.12800997 </v>
   <v>       0.29697590       0.69559711       0.25601994 </v>
   <v>       0.44724442       0.54532860       0.38402991 </v>
   <v>       0.59751293       0.39506009       0.51203988 </v>
   <v>       0.99643888       0.99613414       0.00000000 </v>
   <v>       0.53013023       0.12910945       0.17067996 </v>
   <v>       0.68039874       0.97884094       0.29868993 </v>
   <v>       0.83066725       0.82857243       0.42669990 </v>
   <v>       0.37769571       0.94821064       0.04346280 </v>
   <v>       0.52796422       0.79794212       0.17147277 </v>
   <v>       0.67823274       0.64767361       0.29948274 </v>
   <v>       0.82850125       0.49740510       0.42749271 </v>
   <v>       0.76111855       0.23145446       0.08613279 </v>
   <v>       0.91138706       0.08118595       0.21414276 </v>
   <v>       0.06165557       0.93091744       0.34215273 </v>
   <v>       0.21192409       0.78064893       0.47016270 </v>
   <v>       0.14454139       0.51469829       0.12880278 </v>
   <v>       0.29480990       0.36442978       0.25681275 </v>
   <v>       0.44507841       0.21416127       0.38482272 </v>
   <v>       0.99427287       0.66496681       0.00079281 </v>
   <v>       0.32714088       0.66233547       0.00039640 </v>
   <v>       0.47740939       0.51206696       0.12840637 </v>
   <v>       0.62767790       0.36179845       0.25641634 </v>
   <v>       0.77794641       0.21152993       0.38442631 </v>
   <v>       0.01110074       0.64504228       0.29908633 </v>
   <v>       0.16136925       0.49477376       0.42709630 </v>
   <v>       0.71056371       0.94557930       0.04306639 </v>
   <v>       0.86083223       0.79531079       0.17107636 </v>
   <v>       0.09398655       0.22882313       0.08573638 </v>
   <v>       0.24425506       0.07855462       0.21374635 </v>
   <v>       0.39452358       0.92828610       0.34175632 </v>
   <v>       0.54479209       0.77801759       0.46976629 </v>
  </varray>
 </structure>
 <varray name="primitive_index" >
  <v type="int" >        1 </v>
  <v type="int" >        2 </v>
  <v type="int" >        3 </v>
  <v type="int" >        4 </v>
  <v type="int" >        5 </v>
  <v type="int" >        6 </v>
  <v type="int" >        7 </v>
  <v type="int" >        8 </v>
  <v type="int" >        9 </v>
  <v type="int" >       10 </v>
  <v type="int" >       11 </v>
  <v type="int" >       12 </v>
  <v type="int" >       13 </v>
  <v type="int" >       14 </v>
  <v type="int" >       15 </v>
  <v type="int" >       16 </v>
  <v type="int" >       17 </v>
  <v type="int" >       18 </v>
  <v type="int" >       19 </v>
  <v type="int" >       20 </v>
  <v type="int" >       21 </v>
  <v type="int" >       22 </v>
  <v type="int" >       23 </v>
  <v type="int" >       24 </v>
  <v type="int" >       25 </v>
  <v type="int" >       26 </v>
  <v type="int" >       27 </v>
  <v type="int" >       28 </v>
  <v type="int" >       29 </v>
  <v type="int" >       30 </v>
  <v type="int" >       31 </v>
  <v type="int" >       32 </v>
  <v type="int" >       33 </v>
  <v type="int" >       34 </v>
  <v type="int" >       35 </v>
  <v type="int" >       36 </v>
  <v type="int" >       37 </v>
  <v type="int" >       38 </v>
  <v type="int" >       39 </v>
  <v type="int" >       40 </v>
  <v type="int" >       41 </v>
  <v type="int" >       42 </v>
  <v type="int" >       43 </v>
  <v type="int" >       44 </v>
  <v type="int" >       45 </v>
  <v type="int" >       46 </v>
  <v type="int" >       47 </v>
  <v type="int" >       48 </v>
  <v type="int" >       49 </v>
  <v type="int" >       50 </v>
  <v type="int" >       51 </v>
  <v type="int" >       52 </v>
  <v type="int" >       53 </v>
  <v type="int" >       54 </v>
  <v type="int" >       55 </v>
  <v type="int" >       56 </v>
  <v type="int" >       57 </v>
  <v type="int" >       58 </v>
  <v type="int" >       59 </v>
  <v type="int" >       60 </v>
  <v type="int" >       61 </v>
  <v type="int" >       62 </v>
  <v type="int" >       63 </v>
  <v type="int" >       64 </v>
  <v type="int" >       65 </v>
  <v type="int" >       66 </v>
  <v type="int" >       67 </v>
  <v type="int" >       68 </v>
  <v type="int" >       69 </v>
  <v type="int" >       70 </v>
  <v type="int" >       71 </v>
  <v type="int" >       72 </v>
 </varray>
 <kpoints>
  <generation param="Gamma">
   <v type="int" name="divisions">       1        1        1 </v>
   <v name="usershift">      0.00000000       0.00000000       0.00000000 </v>
   <v name="genvec1">      1.00000000       0.00000000       0.00000000 </v>
   <v name="genvec2">     -0.00000000       1.00000000       0.00000000 </v>
   <v name="genvec3">      0.00000000       0.00000000       1.00000000 </v>
   <v name="shift">      0.00000000       0.00000000       0.00000000 </v>
  </generation>
  <varray name="kpointlist" >
   <v>       0.00000000       0.00000000       0.00000000 </v>
  </varray>
  <varray name="weights" >
   <v>       1.00000000 </v>
  </varray>
 </kpoints>
 <parameters>
  <separator name="general" >
   <i type="string" name="SYSTEM">"Millerite NiS"</i>
   <i type="logical" name="LCOMPAT"> F  </i>
  </separator>
  <separator name="electronic" >
   <i type="string" name="PREC">normal</i>
   <i name="ENMAX">    450.00000000</i>
   <i name="ENAUG">    703.44300000</i>
   <i name="EDIFF">      0.00010000</i>
   <i type="int" name="IALGO">    38</i>
   <i type="int" name="IWAVPR">    10</i>
   <i type="int" name="NBANDS">   480</i>
   <i type="int" name="NBANDSLOW">    -1</i>
   <i type="int" name="NBANDSHIGH">    -1</i>
   <i name="NELECT">    792.00000000</i>
   <i type="int" name="TURBO">     0</i>
   <i type="int" name="IRESTART">     0</i>
   <i type="int" name="NREBOOT">     0</i>
   <i type="int" name="NMIN">     0</i>
   <i name="EREF">      0.00000000</i>
   <separator name="electronic smearing" >
    <i type="int" name="ISMEAR">     0</i>
    <i name="SIGMA">      0.20000000</i>
    <i name="KSPACING">      0.50000000</i>
    <i type="logical" name="KGAMMA"> T  </i>
    <i type="logical" name="KBLOWUP"> T  </i>
   </separator>
   <separator name="electronic projectors" >
    <i type="logical" name="LREAL"> T  </i>
    <v name="ROPT">     -0.00050000     -0.00050000</v>
    <i type="int" name="LMAXPAW">  -100</i>
    <i type="int" name="LMAXMIX">     2</i>
    <i type="logical" name="NLSPLINE"> F  </i>
   </separator>
   <separator name="electronic startup" >
    <i type="int" name="ISTART">     0</i>
    <i type="int" name="ICHARG">     2</i>
    <i type="int" name="INIWAV">     1</i>
   </separator>
   <separator name="electronic spin" >
    <i type="int" name="ISPIN">     1</i>
    <i type="logical" name="LNONCOLLINEAR"> F  </i>
    <v name="MAGMOM">      1.00000000      1.00000000      1.00000000      1.00000000      1.00000000      1.00000000      1.00000000      1.00000000      1.00000000      1.00000000      1.00000000      1.00000000      1.00000000      1.00000000      1.00000000      1.00000000      1.00000000      1.00000000      1.00000000      1.00000000
      1.00000000      1.00000000      1.00000000      1.00000000      1.00000000      1.00000000      1.00000000      1.00000000      1.00000000      1.00000000      1.00000000      1.00000000      1.00000000      1.00000000      1.00000000      1.00000000      1.00000000      1.00000000      1.00000000      1.00000000
      1.00000000      1.00000000      1.00000000      1.00000000      1.00000000      1.00000000      1.00000000      1.00000000      1.00000000      1.00000000      1.00000000      1.00000000      1.00000000      1.00000000      1.00000000      1.00000000      1.00000000      1.00000000      1.00000000      1.00000000
      1.00000000      1.00000000      1.00000000      1.00000000      1.00000000      1.00000000      1.00000000      1.00000000      1.00000000      1.00000000      1.00000000      1.00000000</v>
    <i name="NUPDOWN">     -1.00000000</i>
    <i type="logical" name="LSORBIT"> F  </i>
    <v name="SAXIS">      0.00000000      0.00000000      1.00000000</v>
    <i type="logical" name="LSPIRAL"> F  </i>
    <v name="QSPIRAL">      0.00000000      0.00000000      0.00000000</v>
    <i type="logical" name="LZEROZ"> F  </i>
   </separator>
   <separator name="electronic exchange-correlation" >
    <i type="logical" name="LASPH"> F  </i>
    <i type="logical" name="LMETAGGA"> F  </i>
   </separator>
   <separator name="electronic convergence" >
    <i type="int" name="NELM">   100</i>
    <i type="int" name="NELMDL">    -5</i>
    <i type="int" name="NELMIN">     2</i>
    <i name="ENINI">    450.00000000</i>
    <separator name="electronic convergence detail" >
     <i type="logical" name="LDIAG"> T  </i>
     <i type="logical" name="LSUBROT"> F  </i>
     <i name="WEIMIN">      0.00000000</i>
     <i name="EBREAK">      0.00000005</i>
     <i name="DEPER">      0.30000000</i>
     <i type="int" name="NRMM">     4</i>
     <i name="TIME">      0.40000000</i>
    </separator>
   </separator>
   <separator name="electronic mixer" >
    <i name="AMIX">      0.40000000</i>
    <i name="BMIX">      1.00000000</i>
    <i name="AMIN">      0.10000000</i>
    <i name="AMIX_MAG">      1.60000000</i>
    <i name="BMIX_MAG">      1.00000000</i>
    <separator name="electronic mixer details" >
     <i type="int" name="IMIX">     4</i>
     <i type="logical" name="MIXFIRST"> F  </i>
     <i type="int" name="MAXMIX">   -45</i>
     <i name="WC">    100.00000000</i>
     <i type="int" name="INIMIX">     1</i>
     <i type="int" name="MIXPRE">     1</i>
     <i type="int" name="MREMOVE">     5</i>
    </separator>
   </separator>
   <separator name="electronic dipolcorrection" >
    <i type="logical" name="LDIPOL"> F  </i>
    <i type="logical" name="LMONO"> F  </i>
    <i type="int" name="IDIPOL">     0</i>
    <i name="EPSILON">      1.00000000</i>
    <v name="DIPOL">   -100.00000000   -100.00000000   -100.00000000</v>
    <i name="EFIELD">      0.00000000</i>
   </separator>
  </separator>
  <separator name="grids" >
   <i type="int" name="NGX">    54</i>
   <i type="int" name="NGY">    54</i>
   <i type="int" name="NGZ">   108</i>
   <i type="int" name="NGXF">   108</i>
   <i type="int" name="NGYF">   108</i>
   <i type="int" name="NGZF">   216</i>
   <i type="logical" name="ADDGRID"> F  </i>
  </separator>
  <separator name="ionic" >
   <i type="int" name="NSW">     0</i>
   <i type="int" name="IBRION">    -1</i>
   <i type="int" name="MDALGO">     0</i>
   <i type="int" name="ISIF">     2</i>
   <i name="PSTRESS">      0.00000000</i>
   <i name="EDIFFG">      0.00100000</i>
   <i type="int" name="NFREE">     0</i>
   <i name="POTIM">      0.50000000</i>
   <i name="SMASS">     -3.00000000</i>
   <i name="SCALEE">      1.00000000</i>
  </separator>
  <separator name="ionic md" >
   <i name="TEBEG">      0.00010000</i>
   <i name="TEEND">      0.00010000</i>
   <i type="int" name="NBLOCK">     1</i>
   <i type="int" name="KBLOCK">     1</i>
   <i type="int" name="NPACO">   256</i>
   <i name="APACO">     16.00000000</i>
  </separator>
  <separator name="symmetry" >
   <i type="int" name="ISYM">     2</i>
   <i name="SYMPREC">      0.00001000</i>
  </separator>
  <separator name="dos" >
   <i type="int" name="LORBIT">     0</i>
   <v name="RWIGS">     -1.00000000     -1.00000000</v>
   <i type="int" name="NEDOS">   301</i>
   <i name="EMIN">     10.00000000</i>
   <i name="EMAX">    -10.00000000</i>
   <i name="EFERMI">      0.00000000</i>
  </separator>
  <separator name="writing" >
   <i type="int" name="NWRITE">     2</i>
   <i type="logical" name="LWAVE"> F  </i>
   <i type="logical" name="LDOWNSAMPLE"> F  </i>
   <i type="logical" name="LCHARG"> F  </i>
   <i type="logical" name="LPARD"> F  </i>
   <i type="logical" name="LVTOT"> F  </i>
   <i type="logical" name="LVHAR"> F  </i>
   <i type="logical" name="LELF"> F  </i>
   <i type="logical" name="LOPTICS"> F  </i>
   <v name="STM">      0.00000000      0.00000000      0.00000000      0.00000000      0.00000000      0.00000000      0.00000000</v>
  </separator>
  <separator name="performance" >
   <i type="int" name="NPAR">     8</i>
   <i type="int" name="NSIM">     4</i>
   <i type="int" name="NBLK">    -1</i>
   <i type="logical" name="LPLANE"> T  </i>
   <i type="logical" name="LSCALAPACK"> T  </i>
   <i type="logical" name="LSCAAWARE"> F  </i>
   <i type="logical" name="LSCALU"> F  </i>
   <i type="logical" name="LASYNC"> F  </i>
   <i type="logical" name="LORBITALREAL"> F  </i>
  </separator>
  <separator name="miscellaneous" >
   <i type="int" name="IDIOT">     3</i>
   <i type="int" name="PHON_NSTRUCT">    -1</i>
   <i type="logical" name="LMUSIC"> F  </i>
   <v name="POMASS">     58.69000000     32.06600000</v>
   <v name="DARWINR">      0.00000000      0.00000000</v>
   <v name="DARWINV">      1.00000000      1.00000000</v>
   <i type="logical" name="LCORR"> T  </i>
  </separator>
  <i type="logical" name="GGA_COMPAT"> T  </i>
  <i type="logical" name="LBERRY"> F  </i>
  <i type="int" name="ICORELEVEL">     0</i>
  <i type="logical" name="LDAU"> F  </i>
  <i type="int" name="I_CONSTRAINED_M">     0</i>
  <separator name="electronic exchange-correlation" >
   <i type="string" name="GGA">--</i>
   <i type="int" name="VOSKOWN">     0</i>
   <i type="logical" name="LHFCALC"> F  </i>
   <i type="string" name="PRECFOCK"></i>
   <i type="logical" name="LSYMGRAD"> F  </i>
   <i type="logical" name="LHFONE"> F  </i>
   <i type="logical" name="LRHFCALC"> F  </i>
   <i type="logical" name="LTHOMAS"> F  </i>
   <i type="logical" name="LMODELHF"> F  </i>
   <i type="logical" name="LFOCKACE"> F  </i>
   <i name="ENCUT4O">     -1.00000000</i>
   <i type="int" name="EXXOEP">     0</i>
   <i type="int" name="FOURORBIT">     0</i>
   <i name="AEXX">      0.00000000</i>
   <i name="HFALPHA">      0.00000000</i>
   <i name="MCALPHA">      0.00000000</i>
   <i name="ALDAX">      1.00000000</i>
   <i name="AGGAX">      1.00000000</i>
   <i name="ALDAC">      1.00000000</i>
   <i name="AGGAC">      1.00000000</i>
   <i type="int" name="NKREDX">     1</i>
   <i type="int" name="NKREDY">     1</i>
   <i type="int" name="NKREDZ">     1</i>
   <i type="logical" name="SHIFTRED"> F  </i>
   <i type="logical" name="ODDONLY"> F  </i>
   <i type="logical" name="EVENONLY"> F  </i>
   <i type="int" name="LMAXFOCK">     0</i>
   <i type="int" name="NMAXFOCKAE">     0</i>
   <i type="logical" name="LFOCKAEDFT"> F  </i>
   <i name="HFSCREEN">      0.00000000</i>
   <i name="HFSCREENC">      0.00000000</i>
   <i type="int" name="NBANDSGWLOW">     0</i>
  </separator>
  <separator name="vdW DFT" >
   <i type="logical" name="LUSE_VDW"> F  </i>
   <i name="Zab_VDW">     -0.84910000</i>
   <i name="PARAM1">      0.12340000</i>
   <i name="PARAM2">      1.00000000</i>
   <i name="PARAM3">      0.00000000</i>
  </separator>
  <separator name="model GW" >
   <i type="int" name="MODEL_GW">     0</i>
   <i name="MODEL_EPS0">     16.23762429</i>
   <i name="MODEL_ALPHA">      1.00000000</i>
  </separator>
  <separator name="linear response parameters" >
   <i type="logical" name="LEPSILON"> F  </i>
   <i type="logical" name="LRPA"> F  </i>
   <i type="logical" name="LNABLA"> F  </i>
   <i type="logical" name="LVEL"> F  </i>
   <i type="int" name="KINTER">     0</i>
   <i name="CSHIFT">      0.10000000</i>
   <i name="OMEGAMAX">     -1.00000000</i>
   <i name="DEG_THRESHOLD">      0.00200000</i>
   <i name="RTIME">     -0.10000000</i>
   <i name="WPLASMAI">      0.00000000</i>
   <v name="DFIELD">      0.00000000      0.00000000      0.00000000</v>
   <v name="WPLASMA">      0.00000000      0.00000000      0.00000000      0.00000000      0.00000000      0.00000000      0.00000000      0.00000000      0.00000000</v>
  </separator>
  <separator name="orbital magnetization" >
   <i type="logical" name="NUCIND"> F  </i>
   <v name="MAGPOS">      0.00000000      0.00000000      0.00000000</v>
   <i type="logical" name="LNICSALL"> T  </i>
   <i type="logical" name="ORBITALMAG"> F  </i>
   <i type="logical" name="LMAGBLOCH"> F  </i>
   <i type="logical" name="LCHIMAG"> F  </i>
   <i type="logical" name="LGAUGE"> T  </i>
   <i type="int" name="MAGATOM">     0</i>
   <v name="MAGDIPOL">      0.00000000      0.00000000      0.00000000</v>
   <v name="AVECCONST">      0.00000000      0.00000000      0.00000000</v>
  </separator>
  <separator name="response functions" >
   <i type="logical" name="LFINITE_TEMPERATURE"> F  </i>
   <i type="logical" name="LADDER"> F  </i>
   <i type="logical" name="LRPAFORCE"> F  </i>
   <i type="logical" name="LFXC"> F  </i>
   <i type="logical" name="LHARTREE"> T  </i>
   <i type="int" name="IBSE">     0</i>
   <v type="int" name="KPOINT">    -1     0     0     0</v>
   <i type="logical" name="LTCTC"> F  </i>
   <i type="logical" name="LTCTE"> F  </i>
   <i type="logical" name="LTETE"> F  </i>
   <i type="logical" name="LTRIPLET"> F  </i>
   <i type="logical" name="LFXCEPS"> F  </i>
   <i type="logical" name="LFXHEG"> F  </i>
   <i type="int" name="NATURALO">     2</i>
   <i type="logical" name="LHOLEGF"> F  </i>
   <i type="logical" name="L2ORDER"> F  </i>
   <i type="logical" name="LDMP1"> F  </i>
   <i type="logical" name="LMP2LT"> F  </i>
   <i type="logical" name="LSMP2LT"> F  </i>
   <i type="logical" name="LGWLF"> F  </i>
   <i name="ENCUTGW">     -2.00000000</i>
   <i name="ENCUTGWSOFT">     -2.00000000</i>
   <i name="ENCUTLF">     -1.00000000</i>
   <i type="logical" name="LESF_SPLINES"> F  </i>
   <i type="int" name="LMAXMP2">    -1</i>
   <i name="SCISSOR">      0.00000000</i>
   <i type="int" name="NOMEGA">     0</i>
   <i type="int" name="NOMEGAR">     0</i>
   <i type="int" name="NBANDSGW">    -1</i>
   <i type="int" name="NBANDSO">    -1</i>
   <i type="int" name="NBANDSV">    -1</i>
   <i type="int" name="NELM">   100</i>
   <i type="int" name="NELMHF">     1</i>
   <i type="int" name="DIM">     3</i>
   <i type="int" name="IESPILON">     4</i>
   <i type="int" name="ANTIRES">     0</i>
   <i name="OMEGAMAX">    -30.00000000</i>
   <i name="OMEGAMIN">    -30.00000000</i>
   <i name="OMEGATL">   -200.00000000</i>
   <i type="int" name="OMEGAGRID">     0</i>
   <i name="CSHIFT">     -0.10000000</i>
   <i type="logical" name="LSELFENERGY"> F  </i>
   <i type="logical" name="LSPECTRAL"> F  </i>
   <i type="logical" name="LSPECTRALGW"> F  </i>
   <i type="logical" name="LSINGLES"> F  </i>
   <i type="logical" name="LFERMIGW"> F  </i>
   <i type="logical" name="ODDONLYGW"> F  </i>
   <i type="logical" name="EVENONLYGW"> F  </i>
   <i type="int" name="NKREDLFX">     1</i>
   <i type="int" name="NKREDLFY">     1</i>
   <i type="int" name="NKREDLFZ">     1</i>
   <i type="int" name="MAXMEM">  2800</i>
   <i type="int" name="TELESCOPE">     0</i>
   <i type="int" name="NTAUPAR">    -1</i>
   <i type="int" name="NOMEGAPAR">    -1</i>
   <i name="LAMBDA">      1.00000000</i>
  </separator>
  <separator name="External order field" >
   <i name="OFIELD_KAPPA">      0.00000000</i>
   <v name="OFIELD_K">      0.00000000      0.00000000      0.00000000</v>
   <i name="OFIELD_Q6_NEAR">      0.00000000</i>
   <i name="OFIELD_Q6_FAR">      0.00000000</i>
   <i name="OFIELD_A">      0.00000000</i>
  </separator>
 </parameters>
 <atominfo>
  <atoms>      72 </atoms>
  <types>       2 </types>
  <array name="atoms" >
   <dimension dim="1">ion</dimension>
   <field type="string">element</field>
   <field type="int">atomtype</field>
   <set>
    <rc><c>Ni</c><c>   1</c></rc>
    <rc><c>Ni</c><c>   1</c></rc>
    <rc><c>Ni</c><c>   1</c></rc>
    <rc><c>Ni</c><c>   1</c></rc>
    <rc><c>Ni</c><c>   1</c></rc>
    <rc><c>Ni</c><c>   1</c></rc>
    <rc><c>Ni</c><c>   1</c></rc>
    <rc><c>Ni</c><c>   1</c></rc>
    <rc><c>Ni</c><c>   1</c></rc>
    <rc><c>Ni</c><c>   1</c></rc>
    <rc><c>Ni</c><c>   1</c></rc>
    <rc><c>Ni</c><c>   1</c></rc>
    <rc><c>Ni</c><c>   1</c></rc>
    <rc><c>Ni</c><c>   1</c></rc>
    <rc><c>Ni</c><c>   1</c></rc>
    <rc><c>Ni</c><c>   1</c></rc>
    <rc><c>Ni</c><c>   1</c></rc>
    <rc><c>Ni</c><c>   1</c></rc>
    <rc><c>Ni</c><c>   1</c></rc>
    <rc><c>Ni</c><c>   1</c></rc>
    <rc><c>Ni</c><c>   1</c></rc>
    <rc><c>Ni</c><c>   1</c></rc>
    <rc><c>Ni</c><c>   1</c></rc>
    <rc><c>Ni</c><c>   1</c></rc>
    <rc><c>Ni</c><c>   1</c></rc>
    <rc><c>Ni</c><c>   1</c></rc>
    <rc><c>Ni</c><c>   1</c></rc>
    <rc><c>Ni</c><c>   1</c></rc>
    <rc><c>Ni</c><c>   1</c></rc>
    <rc><c>Ni</c><c>   1</c></rc>
    <rc><c>Ni</c><c>   1</c></rc>
    <rc><c>Ni</c><c>   1</c></rc>
    <rc><c>Ni</c><c>   1</c></rc>
    <rc><c>Ni</c><c>   1</c></rc>
    <rc><c>Ni</c><c>   1</c></rc>
    <rc><c>Ni</c><c>   1</c></rc>
    <rc><c>S </c><c>   2</c></rc>
    <rc><c>S </c><c>   2</c></rc>
    <rc><c>S </c><c>   2</c></rc>
    <rc><c>S </c><c>   2</c></rc>
    <rc><c>S </c><c>   2</c></rc>
    <rc><c>S </c><c>   2</c></rc>
    <rc><c>S </c><c>   2</c></rc>
    <rc><c>S </c><c>   2</c></rc>
    <rc><c>S </c><c>   2</c></rc>
    <rc><c>S </c><c>   2</c></rc>
    <rc><c>S </c><c>   2</c></rc>
    <rc><c>S </c><c>   2</c></rc>
    <rc><c>S </c><c>   2</c></rc>
    <rc><c>S </c><c>   2</c></rc>
    <rc><c>S </c><c>   2</c></rc>
    <rc><c>S </c><c>   2</c></rc>
    <rc><c>S </c><c>   2</c></rc>
    <rc><c>S </c><c>   2</c></rc>
    <rc><c>S </c><c>   2</c></rc>
    <rc><c>S </c><c>   2</c></rc>
    <rc><c>S </c><c>   2</c></rc>
    <rc><c>S </c><c>   2</c></rc>
    <rc><c>S </c><c>   2</c></rc>
    <rc><c>S </c><c>   2</c></rc>
    <rc><c>S </c><c>   2</c></rc>
    <rc><c>S </c><c>   2</c></rc>
    <rc><c>S </c><c>   2</c></rc>
    <rc><c>S </c><c>   2</c></rc>
    <rc><c>S </c><c>   2</c></rc>
    <rc><c>S </c><c>   2</c></rc>
    <rc><c>S </c><c>   2</c></rc>
    <rc><c>S </c><c>   2</c></rc>
    <rc><c>S </c><c>   2</c></rc>
    <rc><c>S </c><c>   2</c></rc>
    <rc><c>S </c><c>   2</c></rc>
    <rc><c>S </c><c>   2</c></rc>
   </set>
  </array>
  <array name="atomtypes" >
   <dimension dim="1">type</dimension>
   <field type="int">atomspertype</field>
   <field type="string">element</field>
   <field>mass</field>
   <field>valence</field>
   <field type="string">pseudopotential</field>
   <set>
    <rc><c>  36</c><c>Ni</c><c>     58.69000000</c><c>     16.00000000</c><c>  PAW_PBE Ni_pv 06Sep2000               </c></rc>
    <rc><c>  36</c><c>S </c><c>     32.06600000</c><c>      6.00000000</c><c>  PAW_PBE S 06Sep2000                   </c></rc>
   </set>
  </array>
 </atominfo>
 <structure name="initialpos" >
  <crystal>
   <varray name="basis" >
    <v>       9.42510255       3.57329804       0.00000000 </v>
    <v>       0.00000000      10.07973298       0.00000000 </v>
    <v>       0.00000000       0.00000000      20.51013988 </v>
   </varray>
   <i name="volume">   1948.51491473 </i>
   <varray name="rec_basis" >
    <v>       0.10609964       0.00000000       0.00000000 </v>
    <v>      -0.03761267       0.09920898       0.00000000 </v>
    <v>       0.00000000       0.00000000       0.04875637 </v>
   </varray>
  </crystal>
  <varray name="positions" >
   <v>       0.37433215       0.75136220       0.09511235 </v>
   <v>       0.52460066       0.60109368       0.22312232 </v>
   <v>       0.67486918       0.45082517       0.35113229 </v>
   <v>       0.82513769       0.30055666       0.47914226 </v>
   <v>       0.60748648       0.18487454       0.00977237 </v>
   <v>       0.75775499       0.03460603       0.13778234 </v>
   <v>       0.05829201       0.73406900       0.39380228 </v>
   <v>       0.90802350       0.88433751       0.26579231 </v>
   <v>       0.14117783       0.31784985       0.18045233 </v>
   <v>       0.29144634       0.16758134       0.30846230 </v>
   <v>       0.44171485       0.01731283       0.43647227 </v>
   <v>       0.99090931       0.46811837       0.05244236 </v>
   <v>       0.00994000       0.11575434       0.41150025 </v>
   <v>       0.55913447       0.56655988       0.02747034 </v>
   <v>       0.70940298       0.41629137       0.15548031 </v>
   <v>       0.85967149       0.26602286       0.28349028 </v>
   <v>       0.09282582       0.69953520       0.19815030 </v>
   <v>       0.24309433       0.54926668       0.32616027 </v>
   <v>       0.39336284       0.39899817       0.45417024 </v>
   <v>       0.94255730       0.84980371       0.07014033 </v>
   <v>       0.32598014       0.13304754       0.11281032 </v>
   <v>       0.47624865       0.98277903       0.24082029 </v>
   <v>       0.62651717       0.83251052       0.36883026 </v>
   <v>       0.77678568       0.68224200       0.49684023 </v>
   <v>       0.04964185       0.34025850       0.44532126 </v>
   <v>       0.59883631       0.79106404       0.06129134 </v>
   <v>       0.74910482       0.64079553       0.18930132 </v>
   <v>       0.89937333       0.49052701       0.31731129 </v>
   <v>       0.98225915       0.07430787       0.10396133 </v>
   <v>       0.13252766       0.92403935       0.23197131 </v>
   <v>       0.28279617       0.77377084       0.35998128 </v>
   <v>       0.43306468       0.62350233       0.48799125 </v>
   <v>       0.21541347       0.50782021       0.01862135 </v>
   <v>       0.36568198       0.35755170       0.14663132 </v>
   <v>       0.51595050       0.20728318       0.27464130 </v>
   <v>       0.66621901       0.05701467       0.40265127 </v>
   <v>       0.06382158       0.26208477       0.34135992 </v>
   <v>       0.21409009       0.11181626       0.46936989 </v>
   <v>       0.76328455       0.56262179       0.08533998 </v>
   <v>       0.91355307       0.41235328       0.21334995 </v>
   <v>       0.14670739       0.84586562       0.12800997 </v>
   <v>       0.29697590       0.69559711       0.25601994 </v>
   <v>       0.44724442       0.54532860       0.38402991 </v>
   <v>       0.59751293       0.39506009       0.51203988 </v>
   <v>       0.99643888       0.99613414       0.00000000 </v>
   <v>       0.53013023       0.12910945       0.17067996 </v>
   <v>       0.68039874       0.97884094       0.29868993 </v>
   <v>       0.83066725       0.82857243       0.42669990 </v>
   <v>       0.37769571       0.94821064       0.04346280 </v>
   <v>       0.52796422       0.79794212       0.17147277 </v>
   <v>       0.67823274       0.64767361       0.29948274 </v>
   <v>       0.82850125       0.49740510       0.42749271 </v>
   <v>       0.76111855       0.23145446       0.08613279 </v>
   <v>       0.91138706       0.08118595       0.21414276 </v>
   <v>       0.06165557       0.93091744       0.34215273 </v>
   <v>       0.21192409       0.78064893       0.47016270 </v>
   <v>       0.14454139       0.51469829       0.12880278 </v>
   <v>       0.29480990       0.36442978       0.25681275 </v>
   <v>       0.44507841       0.21416127       0.38482272 </v>
   <v>       0.99427287       0.66496681       0.00079281 </v>
   <v>       0.32714088       0.66233547       0.00039640 </v>
   <v>       0.47740939       0.51206696       0.12840637 </v>
   <v>       0.62767790       0.36179845       0.25641634 </v>
   <v>       0.77794641       0.21152993       0.38442631 </v>
   <v>       0.01110074       0.64504228       0.29908633 </v>
   <v>       0.16136925       0.49477376       0.42709630 </v>
   <v>       0.71056371       0.94557930       0.04306639 </v>
   <v>       0.86083223       0.79531079       0.17107636 </v>
   <v>       0.09398655       0.22882313       0.08573638 </v>
   <v>       0.24425506       0.07855462       0.21374635 </v>
   <v>       0.39452358       0.92828610       0.34175632 </v>
   <v>       0.54479209       0.77801759       0.46976629 </v>
  </varray>
 </structure>
 <calculation>
  <scstep>
   <time name="dav">    2.04    2.04</time>
   <time name="total">    2.09    2.10</time>
   <energy>
    <i name="alphaZ">   1909.09476555 </i>
    <i name="ewald"> 164856.31370579 </i>
    <i name="hartreedc">-287485.96865461 </i>
    <i name="XCdc">   3652.74113412 </i>
    <i name="pawpsdc"> 112729.53333415 </i>
    <i name="pawaedc">-117641.51188735 </i>
    <i name="eentropy">     -0.44420532 </i>
    <i name="bandstr">  -4199.67764287 </i>
    <i name="atom"> 136002.60505376 </i>
    <i name="e_fr_energy">   9822.68560323 </i>
    <i name="e_wo_entrp">   9823.12980855 </i>
    <i name="e_0_energy">   9822.90770589 </i>
   </energy>
  </scstep>
  <scstep>
   <time name="dav">    1.80    1.80</time>
   <time name="total">    1.80    1.81</time>
   <energy>
    <i name="e_fr_energy">    623.00780994 </i>
    <i name="e_wo_entrp">    623.83907168 </i>
    <i name="e_0_energy">    623.42344081 </i>
   </energy>
  </scstep>
  <scstep>
   <time name="dav">    1.89    1.89</time>
   <time name="total">    1.89    1.90</time>
   <energy>
    <i name="e_fr_energy">   -340.96652145 </i>
    <i name="e_wo_entrp">   -339.91750288 </i>
    <i name="e_0_energy">   -340.44201217 </i>
   </energy>
  </scstep>
  <scstep>
   <time name="dav">    1.98    1.99</time>
   <time name="total">    1.98    1.99</time>
   <energy>
    <i name="e_fr_energy">   -405.56458688 </i>
    <i name="e_wo_entrp">   -404.37403950 </i>
    <i name="e_0_energy">   -404.96931319 </i>
   </energy>
  </scstep>
  <scstep>
   <time name="dav">    2.07    2.07</time>
   <time name="total">    2.11    2.11</time>
   <energy>
    <i name="e_fr_energy">   -407.97428145 </i>
    <i name="e_wo_entrp">   -406.78206668 </i>
    <i name="e_0_energy">   -407.37817406 </i>
   </energy>
  </scstep>
  <scstep>
   <time name="dav">    1.97    1.97</time>
   <time name="total">    2.06    2.06</time>
   <energy>
    <i name="e_fr_energy">   -493.08253530 </i>
    <i name="e_wo_entrp">   -492.08956952 </i>
    <i name="e_0_energy">   -492.58605241 </i>
   </energy>
  </scstep>
  <scstep>
   <time name="dav">    1.95    1.95</time>
   <time name="total">    2.03    2.04</time>
   <energy>
    <i name="e_fr_energy">   -402.32789432 </i>
    <i name="e_wo_entrp">   -401.36075512 </i>
    <i name="e_0_energy">   -401.84432472 </i>
   </energy>
  </scstep>
  <scstep>
   <time name="dav">    2.18    2.18</time>
   <time name="total">    2.27    2.28</time>
   <energy>
    <i name="e_fr_energy">   -410.49805197 </i>
    <i name="e_wo_entrp">   -409.41331812 </i>
    <i name="e_0_energy">   -409.95568504 </i>
   </energy>
  </scstep>
  <scstep>
   <time name="dav">    2.05    2.05</time>
   <time name="total">    2.14    2.15</time>
   <energy>
    <i name="e_fr_energy">   -390.50029834 </i>
    <i name="e_wo_entrp">   -389.27511353 </i>
    <i name="e_0_energy">   -389.88770593 </i>
   </energy>
  </scstep>
  <scstep>
   <time name="dav">    2.18    2.18</time>
   <time name="total">    2.27    2.27</time>
   <energy>
    <i name="e_fr_energy">   -415.94863162 </i>
    <i name="e_wo_entrp">   -414.88291595 </i>
    <i name="e_0_energy">   -415.41577379 </i>
   </energy>
  </scstep>
  <scstep>
   <time name="dav">    2.12    2.12</time>
   <time name="total">    2.21    2.21</time>
   <energy>
    <i name="e_fr_energy">   -392.70339781 </i>
    <i name="e_wo_entrp">   -391.50379371 </i>
    <i name="e_0_energy">   -392.10359576 </i>
   </energy>
  </scstep>
  <scstep>
   <time name="dav">    2.19    2.19</time>
   <time name="total">    2.28    2.29</time>
   <energy>
    <i name="e_fr_energy">   -389.25215620 </i>
    <i name="e_wo_entrp">   -388.14522373 </i>
    <i name="e_0_energy">   -388.69868996 </i>
   </energy>
  </scstep>
  <scstep>
   <time name="dav">    2.19    2.19</time>
   <time name="total">    2.28    2.28</time>
   <energy>
    <i name="e_fr_energy">   -409.76992825 </i>
    <i name="e_wo_entrp">   -408.86617372 </i>
    <i name="e_0_energy">   -409.31805098 </i>
   </energy>
  </scstep>
  <scstep>
   <time name="dav">    2.17    2.18</time>
   <time name="total">    2.27    2.27</time>
   <energy>
    <i name="e_fr_energy">   -370.31433951 </i>
    <i name="e_wo_entrp">   -369.28273211 </i>
    <i name="e_0_energy">   -369.79853581 </i>
   </energy>
  </scstep>
  <scstep>
   <time name="dav">    2.18    2.18</time>
   <time name="total">    2.27    2.28</time>
   <energy>
    <i name="e_fr_energy">   -366.33263046 </i>
    <i name="e_wo_entrp">   -365.33375463 </i>
    <i name="e_0_energy">   -365.83319255 </i>
   </energy>
  </scstep>
  <scstep>
   <time name="dav">    2.19    2.19</time>
   <time name="total">    2.28    2.28</time>
   <energy>
    <i name="e_fr_energy">   -364.06388914 </i>
    <i name="e_wo_entrp">   -363.02063455 </i>
    <i name="e_0_energy">   -363.54226185 </i>
   </energy>
  </scstep>
  <scstep>
   <time name="dav">    2.14    2.15</time>
   <time name="total">    2.24    2.24</time>
   <energy>
    <i name="e_fr_energy">   -363.37524503 </i>
    <i name="e_wo_entrp">   -362.35941451 </i>
    <i name="e_0_energy">   -362.86732977 </i>
   </energy>
  </scstep>
  <scstep>
   <time name="dav">    2.12    2.13</time>
   <time name="total">    2.21    2.22</time>
   <energy>
    <i name="e_fr_energy">   -361.55517286 </i>
    <i name="e_wo_entrp">   -360.57160735 </i>
    <i name="e_0_energy">   -361.06339011 </i>
   </energy>
  </scstep>
  <scstep>
   <time name="dav">    2.17    2.17</time>
   <time name="total">    2.26    2.27</time>
   <energy>
    <i name="e_fr_energy">   -360.83508892 </i>
    <i name="e_wo_entrp">   -359.83218889 </i>
    <i name="e_0_energy">   -360.33363891 </i>
   </energy>
  </scstep>
  <scstep>
   <time name="dav">    2.24    2.24</time>
   <time name="total">    2.33    2.34</time>
   <energy>
    <i name="e_fr_energy">   -359.65842078 </i>
    <i name="e_wo_entrp">   -358.64606750 </i>
    <i name="e_0_energy">   -359.15224414 </i>
   </energy>
  </scstep>
  <scstep>
   <time name="dav">    2.17    2.18</time>
   <time name="total">    2.26    2.27</time>
   <energy>
    <i name="e_fr_energy">   -359.05630918 </i>
    <i name="e_wo_entrp">   -357.99687706 </i>
    <i name="e_0_energy">   -358.52659312 </i>
   </energy>
  </scstep>
  <scstep>
   <time name="dav">    2.13    2.14</time>
   <time name="total">    2.22    2.23</time>
   <energy>
    <i name="e_fr_energy">   -358.51940122 </i>
    <i name="e_wo_entrp">   -357.54094331 </i>
    <i name="e_0_energy">   -358.03017227 </i>
   </energy>
  </scstep>
  <scstep>
   <time name="dav">    2.21    2.21</time>
   <time name="total">    2.31    2.32</time>
   <energy>
    <i name="e_fr_energy">   -358.19136054 </i>
    <i name="e_wo_entrp">   -357.13897894 </i>
    <i name="e_0_energy">   -357.66516974 </i>
   </energy>
  </scstep>
  <scstep>
   <time name="dav">    1.99    2.00</time>
   <time name="total">    2.09    2.10</time>
   <energy>
    <i name="e_fr_energy">   -358.13813137 </i>
    <i name="e_wo_entrp">   -357.10149012 </i>
    <i name="e_0_energy">   -357.61981075 </i>
   </energy>
  </scstep>
  <scstep>
   <time name="dav">    2.06    2.06</time>
   <time name="total">    2.15    2.16</time>
   <energy>
    <i name="e_fr_energy">   -358.28927147 </i>
    <i name="e_wo_entrp">   -357.25707841 </i>
    <i name="e_0_energy">   -357.77317494 </i>
   </energy>
  </scstep>
  <scstep>
   <time name="dav">    2.18    2.19</time>
   <time name="total">    2.28    2.28</time>
   <energy>
    <i name="e_fr_energy">   -358.20219109 </i>
    <i name="e_wo_entrp">   -357.15694068 </i>
    <i name="e_0_energy">   -357.67956589 </i>
   </energy>
  </scstep>
  <scstep>
   <time name="dav">    2.16    2.17</time>
   <time name="total">    2.26    2.26</time>
   <energy>
    <i name="e_fr_energy">   -358.08743883 </i>
    <i name="e_wo_entrp">   -357.03618950 </i>
    <i name="e_0_energy">   -357.56181416 </i>
   </energy>
  </scstep>
  <scstep>
   <time name="dav">    2.19    2.20</time>
   <time name="total">    2.29    2.30</time>
   <energy>
    <i name="e_fr_energy">   -358.09648178 </i>
    <i name="e_wo_entrp">   -357.05573613 </i>
    <i name="e_0_energy">   -357.57610896 </i>
   </energy>
  </scstep>
  <scstep>
   <time name="dav">    2.02    2.03</time>
   <time name="total">    2.12    2.12</time>
   <energy>
    <i name="e_fr_energy">   -358.05026444 </i>
    <i name="e_wo_entrp">   -357.02167120 </i>
    <i name="e_0_energy">   -357.53596782 </i>
   </energy>
  </scstep>
  <scstep>
   <time name="dav">    2.16    2.17</time>
   <time name="total">    2.26    2.26</time>
   <energy>
    <i name="e_fr_energy">   -358.05536867 </i>
    <i name="e_wo_entrp">   -357.00955683 </i>
    <i name="e_0_energy">   -357.53246275 </i>
   </energy>
  </scstep>
  <scstep>
   <time name="dav">    2.06    2.07</time>
   <time name="total">    2.16    2.17</time>
   <energy>
    <i name="e_fr_energy">   -358.04880403 </i>
    <i name="e_wo_entrp">   -357.02762186 </i>
    <i name="e_0_energy">   -357.53821295 </i>
   </energy>
  </scstep>
  <scstep>
   <time name="dav">    2.16    2.16</time>
   <time name="total">    2.25    2.26</time>
   <energy>
    <i name="e_fr_energy">   -358.04480362 </i>
    <i name="e_wo_entrp">   -357.01358215 </i>
    <i name="e_0_energy">   -357.52919288 </i>
   </energy>
  </scstep>
  <scstep>
   <time name="dav">    2.42    2.43</time>
   <time name="total">    2.52    2.53</time>
   <energy>
    <i name="e_fr_energy">   -358.03798918 </i>
    <i name="e_wo_entrp">   -357.02283613 </i>
    <i name="e_0_energy">   -357.53041265 </i>
   </energy>
  </scstep>
  <scstep>
   <time name="dav">    2.16    2.16</time>
   <time name="total">    2.25    2.26</time>
   <energy>
    <i name="e_fr_energy">   -358.03601265 </i>
    <i name="e_wo_entrp">   -357.01561569 </i>
    <i name="e_0_energy">   -357.52581417 </i>
   </energy>
  </scstep>
  <scstep>
   <time name="dav">    1.93    1.94</time>
   <time name="total">    2.03    2.03</time>
   <energy>
    <i name="e_fr_energy">   -358.03516482 </i>
    <i name="e_wo_entrp">   -357.01158091 </i>
    <i name="e_0_energy">   -357.52337287 </i>
   </energy>
  </scstep>
  <scstep>
   <time name="dav">    2.06    2.07</time>
   <time name="total">    2.15    2.16</time>
   <energy>
    <i name="e_fr_energy">   -358.03473590 </i>
    <i name="e_wo_entrp">   -357.00867713 </i>
    <i name="e_0_energy">   -357.52170651 </i>
   </energy>
  </scstep>
  <scstep>
   <time name="dav">    1.80    1.81</time>
   <time name="total">    1.90    1.90</time>
   <energy>
    <i name="e_fr_energy">   -358.03450655 </i>
    <i name="e_wo_entrp">   -357.00586200 </i>
    <i name="e_0_energy">   -357.52018428 </i>
   </energy>
  </scstep>
  <scstep>
   <time name="dav">    1.64    1.64</time>
   <time name="total">    1.73    1.73</time>
   <energy>
    <i name="e_fr_energy">   -358.03473703 </i>
    <i name="e_wo_entrp">   -357.00722366 </i>
    <i name="e_0_energy">   -357.52098035 </i>
   </energy>
  </scstep>
  <scstep>
   <time name="dav">    1.28    1.28</time>
   <time name="total">    1.33    1.33</time>
   <energy>
    <i name="alphaZ">   1909.09476555 </i>
    <i name="ewald"> 164856.31370579 </i>
    <i name="hartreedc">-286680.28502121 </i>
    <i name="XCdc">   3622.92326896 </i>
    <i name="pawpsdc"> 130657.25422799 </i>
    <i name="pawaedc">-135628.24791891 </i>
    <i name="eentropy">     -1.02866890 </i>
    <i name="bandstr"> -15096.66407062 </i>
    <i name="atom"> 136002.60505376 </i>
    <i name="e_fr_energy">   -358.03465760 </i>
    <i name="e_wo_entrp">   -357.00598870 </i>
    <i name="e_0_energy">   -357.52032315 </i>
   </energy>
  </scstep>
  <structure>
   <crystal>
    <varray name="basis" >
     <v>       9.42510255       3.57329804       0.00000000 </v>
     <v>       0.00000000      10.07973298       0.00000000 </v>
     <v>       0.00000000       0.00000000      20.51013988 </v>
    </varray>
    <i name="volume">   1948.51491473 </i>
    <varray name="rec_basis" >
     <v>       0.10609964       0.00000000       0.00000000 </v>
     <v>      -0.03761267       0.09920898       0.00000000 </v>
     <v>       0.00000000       0.00000000       0.04875637 </v>
    </varray>
   </crystal>
   <varray name="positions" >
    <v>       0.37433215       0.75136220       0.09511235 </v>
    <v>       0.52460066       0.60109368       0.22312232 </v>
    <v>       0.67486918       0.45082517       0.35113229 </v>
    <v>       0.82513769       0.30055666       0.47914226 </v>
    <v>       0.60748648       0.18487454       0.00977237 </v>
    <v>       0.75775499       0.03460603       0.13778234 </v>
    <v>       0.05829201       0.73406900       0.39380228 </v>
    <v>       0.90802350       0.88433751       0.26579231 </v>
    <v>       0.14117783       0.31784985       0.18045233 </v>
    <v>       0.29144634       0.16758134       0.30846230 </v>
    <v>       0.44171485       0.01731283       0.43647227 </v>
    <v>       0.99090931       0.46811837       0.05244236 </v>
    <v>       0.00994000       0.11575434       0.41150025 </v>
    <v>       0.55913447       0.56655988       0.02747034 </v>
    <v>       0.70940298       0.41629137       0.15548031 </v>
    <v>       0.85967149       0.26602286       0.28349028 </v>
    <v>       0.09282582       0.69953520       0.19815030 </v>
    <v>       0.24309433       0.54926668       0.32616027 </v>
    <v>       0.39336284       0.39899817       0.45417024 </v>
    <v>       0.94255730       0.84980371       0.07014033 </v>
    <v>       0.32598014       0.13304754       0.11281032 </v>
    <v>       0.47624865       0.98277903       0.24082029 </v>
    <v>       0.62651717       0.83251052       0.36883026 </v>
    <v>       0.77678568       0.68224200       0.49684023 </v>
    <v>       0.04964185       0.34025850       0.44532126 </v>
    <v>       0.59883631       0.79106404       0.06129134 </v>
    <v>       0.74910482       0.64079553       0.18930132 </v>
    <v>       0.89937333       0.49052701       0.31731129 </v>
    <v>       0.98225915       0.07430787       0.10396133 </v>
    <v>       0.13252766       0.92403935       0.23197131 </v>
    <v>       0.28279617       0.77377084       0.35998128 </v>
    <v>       0.43306468       0.62350233       0.48799125 </v>
    <v>       0.21541347       0.50782021       0.01862135 </v>
    <v>       0.36568198       0.35755170       0.14663132 </v>
    <v>       0.51595050       0.20728318       0.27464130 </v>
    <v>       0.66621901       0.05701467       0.40265127 </v>
    <v>       0.06382158       0.26208477       0.34135992 </v>
    <v>       0.21409009       0.11181626       0.46936989 </v>
    <v>       0.76328455       0.56262179       0.08533998 </v>
    <v>       0.91355307       0.41235328       0.21334995 </v>
    <v>       0.14670739       0.84586562       0.12800997 </v>
    <v>       0.29697590       0.69559711       0.25601994 </v>
    <v>       0.44724442       0.54532860       0.38402991 </v>
    <v>       0.59751293       0.39506009       0.51203988 </v>
    <v>       0.99643888       0.99613414       0.00000000 </v>
    <v>       0.53013023       0.12910945       0.17067996 </v>
    <v>       0.68039874       0.97884094       0.29868993 </v>
    <v>       0.83066725       0.82857243       0.42669990 </v>
    <v>       0.37769571       0.94821064       0.04346280 </v>
    <v>       0.52796422       0.79794212       0.17147277 </v>
    <v>       0.67823274       0.64767361       0.29948274 </v>
    <v>       0.82850125       0.49740510       0.42749271 </v>
    <v>       0.76111855       0.23145446       0.08613279 </v>
    <v>       0.91138706       0.08118595       0.21414276 </v>
    <v>       0.06165557       0.93091744       0.34215273 </v>
    <v>       0.21192409       0.78064893       0.47016270 </v>
    <v>       0.14454139       0.51469829       0.12880278 </v>
    <v>       0.29480990       0.36442978       0.25681275 </v>
    <v>       0.44507841       0.21416127       0.38482272 </v>
    <v>       0.99427287       0.66496681       0.00079281 </v>
    <v>       0.32714088       0.66233547       0.00039640 </v>
    <v>       0.47740939       0.51206696       0.12840637 </v>
    <v>       0.62767790       0.36179845       0.25641634 </v>
    <v>       0.77794641       0.21152993       0.38442631 </v>
    <v>       0.01110074       0.64504228       0.29908633 </v>
    <v>       0.16136925       0.49477376       0.42709630 </v>
    <v>       0.71056371       0.94557930       0.04306639 </v>
    <v>       0.86083223       0.79531079       0.17107636 </v>
    <v>       0.09398655       0.22882313       0.08573638 </v>
    <v>       0.24425506       0.07855462       0.21374635 </v>
    <v>       0.39452358       0.92828610       0.34175632 </v>
    <v>       0.54479209       0.77801759       0.46976629 </v>
   </varray>
  </structure>
  <varray name="forces" >
   <v>      -0.18040424       0.24267409      -0.23125202 </v>
   <v>       0.17104426       0.08588710       0.06194095 </v>
   <v>       0.14557714      -0.03341841       0.12446946 </v>
   <v>      -1.32039075       0.55308752      -1.10606810 </v>
   <v>       1.27262157      -0.50281336       1.72342199 </v>
   <v>      -0.13570309       0.10132215      -0.08466212 </v>
   <v>       0.27982853       0.01858612       0.56341614 </v>
   <v>       0.24673450       0.10300224      -0.06750301 </v>
   <v>       0.06410179      -0.05081693      -0.32682208 </v>
   <v>       0.07007470       0.08320568       0.08733908 </v>
   <v>      -0.69123687      -0.39470541      -0.42417817 </v>
   <v>       0.23010572       0.63915926       0.57747506 </v>
   <v>       0.58605527       0.63773564      -0.42953405 </v>
   <v>      -0.52465694      -0.07039225       1.09609272 </v>
   <v>      -0.16963979      -0.05560062      -0.10405174 </v>
   <v>       0.08045226      -0.01220106       0.02915085 </v>
   <v>      -0.05129588       0.05800062      -0.04968625 </v>
   <v>      -0.06973241      -0.13882244       0.04296319 </v>
   <v>       0.54261557       0.73031445      -0.59693980 </v>
   <v>       0.28722825       0.20823299      -0.76781272 </v>
   <v>      -0.09926187      -0.62369242      -0.09948897 </v>
   <v>      -0.04555563      -0.03187235      -0.15104098 </v>
   <v>       0.01544825       0.13820672       0.38796942 </v>
   <v>      -0.69371618       0.17728911      -1.98430477 </v>
   <v>       0.52749886      -0.14943583      -0.79554777 </v>
   <v>      -0.27588526       0.61931556       0.46242459 </v>
   <v>      -0.14024302      -0.06089755      -0.02447966 </v>
   <v>       0.08868893      -0.04759629       0.06746101 </v>
   <v>      -0.03622096       0.01483722      -0.71719643 </v>
   <v>      -0.07611499      -0.01690285      -0.00675440 </v>
   <v>      -0.06897880      -0.07287349       0.36984391 </v>
   <v>       0.16720820      -0.22950528      -0.85407017 </v>
   <v>      -0.95200993       1.54563739       1.03265239 </v>
   <v>       0.01200139       0.27491637      -0.06470179 </v>
   <v>       0.07430156      -0.00760781      -0.01687965 </v>
   <v>       0.34303226       0.16258239      -0.68785584 </v>
   <v>      -0.29983531      -0.02654299       0.06559629 </v>
   <v>      -1.15169777       0.16638974       0.28220092 </v>
   <v>      -0.24039051      -0.03107563      -1.59180386 </v>
   <v>      -0.05219070       0.04929164      -0.02999789 </v>
   <v>       0.00608165      -0.00597779      -0.18309866 </v>
   <v>       0.10616474      -0.08988983       0.11145984 </v>
   <v>      -0.43598927      -0.08532119       0.18533619 </v>
   <v>      -1.01503814       0.05462385       0.16423043 </v>
   <v>      -0.07667317      -0.27649116       1.01732180 </v>
   <v>      -0.63007914       0.23745168      -0.92649156 </v>
   <v>      -0.27611183      -0.19951083      -0.07776583 </v>
   <v>      -0.70182948      -0.22341663       1.03371118 </v>
   <v>       0.68345266       0.37459557       0.30949696 </v>
   <v>      -0.20438922      -0.34840726       0.06662473 </v>
   <v>       0.02847855      -0.12267932      -0.10871394 </v>
   <v>       0.49398079      -0.12267457       1.18253483 </v>
   <v>      -0.70902638      -0.41846594      -0.64589863 </v>
   <v>      -0.01820621      -0.00402831      -0.21825465 </v>
   <v>      -0.03902124      -0.17966902       0.19920968 </v>
   <v>       0.49247625      -0.06652307      -0.61238998 </v>
   <v>       0.89599836      -0.92481121      -0.65031087 </v>
   <v>      -0.04153555      -0.32239112       0.03516891 </v>
   <v>       0.29839462      -0.36830385       1.06800749 </v>
   <v>       0.92468686      -1.17951105       0.33232819 </v>
   <v>       0.95848791      -0.96427934      -0.02861028 </v>
   <v>      -0.19534726      -0.11229407      -0.24482633 </v>
   <v>      -0.02534346      -0.01114704       0.10181595 </v>
   <v>       0.61439648      -0.40065512       1.07112013 </v>
   <v>       0.04431106      -0.01179063       0.13290186 </v>
   <v>       0.61019075      -0.12844251       0.60754981 </v>
   <v>      -0.76201466       0.24114739      -0.49969374 </v>
   <v>       0.03268469       0.12552829       0.06624058 </v>
   <v>       0.04888507       0.78758868      -0.04773981 </v>
   <v>       0.13240230       0.09872450       0.31319283 </v>
   <v>       0.23837399       0.05109413      -0.06328674 </v>
   <v>       0.59170013       0.54302572       0.54704390 </v>
  </varray>
  <varray name="stress" >
   <v>     -31.51294547       4.00460428      -9.62074884 </v>
   <v>       4.00460449     -25.64864050       4.49767202 </v>
   <v>      -9.62074860       4.49767184     -16.86859122 </v>
  </varray>
  <energy>
   <i name="e_fr_energy">   -358.03465760 </i>
   <i name="e_wo_entrp">   -357.00598870 </i>
   <i name="e_0_energy">   -357.52032315 </i>
  </energy>
  <time name="totalsc">   85.46   85.78</time>
  <eigenvalues>
   <array>
    <dimension dim="1">band</dimension>
    <dimension dim="2">kpoint</dimension>
    <dimension dim="3">spin</dimension>
    <field>eigene</field>
    <field>occ</field>
    <set>
     <set comment="spin 1">
      <set comment="kpoint 1">
       <r>  -62.8174    1.0000 </r>
       <r>  -62.7918    1.0000 </r>
       <r>  -62.7884    1.0000 </r>
       <r>  -62.7826    1.0000 </r>
       <r>  -62.7682    1.0000 </r>
       <r>  -62.7587    1.0000 </r>
       <r>  -62.7536    1.0000 </r>
       <r>  -62.7429    1.0000 </r>
       <r>  -62.7421    1.0000 </r>
       <r>  -62.7407    1.0000 </r>
       <r>  -62.7340    1.0000 </r>
       <r>  -62.7318    1.0000 </r>
       <r>  -62.7293    1.0000 </r>
       <r>  -62.7278    1.0000 </r>
       <r>  -62.7239    1.0000 </r>
       <r>  -62.7216    1.0000 </r>
       <r>  -62.7169    1.0000 </r>
       <r>  -62.7150    1.0000 </r>
       <r>  -62.7114    1.0000 </r>
       <r>  -62.7113    1.0000 </r>
       <r>  -62.7104    1.0000 </r>
       <r>  -62.7088    1.0000 </r>
       <r>  -62.7053    1.0000 </r>
       <r>  -62.7045    1.0000 </r>
       <r>  -62.7039    1.0000 </r>
       <r>  -62.6989    1.0000 </r>
       <r>  -62.6977    1.0000 </r>
       <r>  -62.6873    1.0000 </r>
       <r>  -62.6853    1.0000 </r>
       <r>  -62.6842    1.0000 </r>
       <r>  -62.6728    1.0000 </r>
       <r>  -62.6606    1.0000 </r>
       <r>  -62.6519    1.0000 </r>
       <r>  -62.6493    1.0000 </r>
       <r>  -62.6463    1.0000 </r>
       <r>  -62.6441    1.0000 </r>
       <r>  -62.6430    1.0000 </r>
       <r>  -62.6429    1.0000 </r>
       <r>  -62.6425    1.0000 </r>
       <r>  -62.6389    1.0000 </r>
       <r>  -62.6332    1.0000 </r>
       <r>  -62.6295    1.0000 </r>
       <r>  -62.6145    1.0000 </r>
       <r>  -62.6115    1.0000 </r>
       <r>  -62.6023    1.0000 </r>
       <r>  -62.5854    1.0000 </r>
       <r>  -62.5810    1.0000 </r>
       <r>  -62.5637    1.0000 </r>
       <r>  -62.5602    1.0000 </r>
       <r>  -62.5470    1.0000 </r>
       <r>  -62.5220    1.0000 </r>
       <r>  -62.5197    1.0000 </r>
       <r>  -62.5149    1.0000 </r>
       <r>  -62.5146    1.0000 </r>
       <r>  -62.5118    1.0000 </r>
       <r>  -62.4941    1.0000 </r>
       <r>  -62.4811    1.0000 </r>
       <r>  -62.4654    1.0000 </r>
       <r>  -62.4642    1.0000 </r>
       <r>  -62.4625    1.0000 </r>
       <r>  -62.4563    1.0000 </r>
       <r>  -62.4561    1.0000 </r>
       <r>  -62.4521    1.0000 </r>
       <r>  -62.4372    1.0000 </r>
       <r>  -62.4370    1.0000 </r>
       <r>  -62.4232    1.0000 </r>
       <r>  -62.4151    1.0000 </r>
       <r>  -62.4112    1.0000 </r>
       <r>  -62.3878    1.0000 </r>
       <r>  -62.3850    1.0000 </r>
       <r>  -62.3809    1.0000 </r>
       <r>  -62.3677    1.0000 </r>
       <r>  -62.3540    1.0000 </r>
       <r>  -62.3524    1.0000 </r>
       <r>  -62.3512    1.0000 </r>
       <r>  -62.3356    1.0000 </r>
       <r>  -62.3109    1.0000 </r>
       <r>  -62.3071    1.0000 </r>
       <r>  -62.3058    1.0000 </r>
       <r>  -62.2788    1.0000 </r>
       <r>  -62.2527    1.0000 </r>
       <r>  -62.2454    1.0000 </r>
       <r>  -62.2436    1.0000 </r>
       <r>  -62.2402    1.0000 </r>
       <r>  -62.2146    1.0000 </r>
       <r>  -62.1930    1.0000 </r>
       <r>  -62.1707    1.0000 </r>
       <r>  -62.1519    1.0000 </r>
       <r>  -62.1128    1.0000 </r>
       <r>  -62.0930    1.0000 </r>
       <r>  -62.0758    1.0000 </r>
       <r>  -62.0348    1.0000 </r>
       <r>  -62.0241    1.0000 </r>
       <r>  -61.9777    1.0000 </r>
       <r>  -61.9567    1.0000 </r>
       <r>  -61.9539    1.0000 </r>
       <r>  -61.9345    1.0000 </r>
       <r>  -61.9314    1.0000 </r>
       <r>  -61.9058    1.0000 </r>
       <r>  -61.9056    1.0000 </r>
       <r>  -61.8889    1.0000 </r>
       <r>  -61.7407    1.0000 </r>
       <r>  -61.7365    1.0000 </r>
       <r>  -61.6484    1.0000 </r>
       <r>  -61.5621    1.0000 </r>
       <r>  -61.2869    1.0000 </r>
       <r>  -61.2329    1.0000 </r>
       <r>  -60.8363    1.0000 </r>
       <r>  -14.0752    1.0000 </r>
       <r>  -13.4240    1.0000 </r>
       <r>  -13.2745    1.0000 </r>
       <r>  -13.2092    1.0000 </r>
       <r>  -13.1036    1.0000 </r>
       <r>  -13.0517    1.0000 </r>
       <r>  -12.8546    1.0000 </r>
       <r>  -12.8336    1.0000 </r>
       <r>  -12.7327    1.0000 </r>
       <r>  -12.6959    1.0000 </r>
       <r>  -12.6648    1.0000 </r>
       <r>  -12.5991    1.0000 </r>
       <r>  -12.4938    1.0000 </r>
       <r>  -12.4054    1.0000 </r>
       <r>  -12.3166    1.0000 </r>
       <r>  -12.2343    1.0000 </r>
       <r>  -12.2189    1.0000 </r>
       <r>  -12.1780    1.0000 </r>
       <r>  -12.1567    1.0000 </r>
       <r>  -12.0971    1.0000 </r>
       <r>  -12.0148    1.0000 </r>
       <r>  -11.9519    1.0000 </r>
       <r>  -11.9230    1.0000 </r>
       <r>  -11.9099    1.0000 </r>
       <r>  -11.7649    1.0000 </r>
       <r>  -11.7258    1.0000 </r>
       <r>  -11.6402    1.0000 </r>
       <r>  -11.5736    1.0000 </r>
       <r>  -11.3866    1.0000 </r>
       <r>  -11.3327    1.0000 </r>
       <r>  -11.2719    1.0000 </r>
       <r>  -11.0383    1.0000 </r>
       <r>  -10.9064    1.0000 </r>
       <r>  -10.8492    1.0000 </r>
       <r>  -10.8128    1.0000 </r>
       <r>  -10.6071    1.0000 </r>
       <r>   -5.8324    1.0000 </r>
       <r>   -5.7618    1.0000 </r>
       <r>   -5.7041    1.0000 </r>
       <r>   -5.4832    1.0000 </r>
       <r>   -5.4581    1.0000 </r>
       <r>   -5.2798    1.0000 </r>
       <r>   -5.2405    1.0000 </r>
       <r>   -5.2104    1.0000 </r>
       <r>   -5.1793    1.0000 </r>
       <r>   -5.0502    1.0000 </r>
       <r>   -4.9980    1.0000 </r>
       <r>   -4.9701    1.0000 </r>
       <r>   -4.9363    1.0000 </r>
       <r>   -4.9221    1.0000 </r>
       <r>   -4.8828    1.0000 </r>
       <r>   -4.8657    1.0000 </r>
       <r>   -4.8205    1.0000 </r>
       <r>   -4.7711    1.0000 </r>
       <r>   -4.7260    1.0000 </r>
       <r>   -4.6775    1.0000 </r>
       <r>   -4.6487    1.0000 </r>
       <r>   -4.5900    1.0000 </r>
       <r>   -4.5614    1.0000 </r>
       <r>   -4.5208    1.0000 </r>
       <r>   -4.4960    1.0000 </r>
       <r>   -4.4528    1.0000 </r>
       <r>   -4.3711    1.0000 </r>
       <r>   -4.3547    1.0000 </r>
       <r>   -4.3264    1.0000 </r>
       <r>   -4.2074    1.0000 </r>
       <r>   -4.1368    1.0000 </r>
       <r>   -4.0729    1.0000 </r>
       <r>   -4.0129    1.0000 </r>
       <r>   -3.9873    1.0000 </r>
       <r>   -3.9533    1.0000 </r>
       <r>   -3.9212    1.0000 </r>
       <r>   -3.8217    1.0000 </r>
       <r>   -3.8012    1.0000 </r>
       <r>   -3.7352    1.0000 </r>
       <r>   -3.6753    1.0000 </r>
       <r>   -3.6415    1.0000 </r>
       <r>   -3.6007    1.0000 </r>
       <r>   -3.5700    1.0000 </r>
       <r>   -3.4951    1.0000 </r>
       <r>   -3.4389    1.0000 </r>
       <r>   -3.3638    1.0000 </r>
       <r>   -3.3218    1.0000 </r>
       <r>   -3.2959    1.0000 </r>
       <r>   -3.2393    1.0000 </r>
       <r>   -3.2270    1.0000 </r>
       <r>   -3.2060    1.0000 </r>
       <r>   -3.1676    1.0000 </r>
       <r>   -3.1412    1.0000 </r>
       <r>   -3.1347    1.0000 </r>
       <r>   -3.1069    1.0000 </r>
       <r>   -3.0895    1.0000 </r>
       <r>   -3.0294    1.0000 </r>
       <r>   -3.0185    1.0000 </r>
       <r>   -3.0036    1.0000 </r>
       <r>   -2.9666    1.0000 </r>
       <r>   -2.9179    1.0000 </r>
       <r>   -2.8919    1.0000 </r>
       <r>   -2.8745    1.0000 </r>
       <r>   -2.8432    1.0000 </r>
       <r>   -2.8104    1.0000 </r>
       <r>   -2.7783    1.0000 </r>
       <r>   -2.7652    1.0000 </r>
       <r>   -2.7556    1.0000 </r>
       <r>   -2.7042    1.0000 </r>
       <r>   -2.6967    1.0000 </r>
       <r>   -2.6628    1.0000 </r>
       <r>   -2.6489    1.0000 </r>
       <r>   -2.6362    1.0000 </r>
       <r>   -2.6064    1.0000 </r>
       <r>   -2.5880    1.0000 </r>
       <r>   -2.5542    1.0000 </r>
       <r>   -2.5334    1.0000 </r>
       <r>   -2.4969    1.0000 </r>
       <r>   -2.4766    1.0000 </r>
       <r>   -2.4695    1.0000 </r>
       <r>   -2.4553    1.0000 </r>
       <r>   -2.3923    1.0000 </r>
       <r>   -2.3897    1.0000 </r>
       <r>   -2.3656    1.0000 </r>
       <r>   -2.3322    1.0000 </r>
       <r>   -2.2710    1.0000 </r>
       <r>   -2.2339    1.0000 </r>
       <r>   -2.1875    1.0000 </r>
       <r>   -2.1584    1.0000 </r>
       <r>   -2.1113    1.0000 </r>
       <r>   -2.0583    1.0000 </r>
       <r>   -2.0169    1.0000 </r>
       <r>   -1.9355    1.0000 </r>
       <r>   -1.9031    1.0000 </r>
       <r>   -1.8355    1.0000 </r>
       <r>   -1.8138    1.0000 </r>
       <r>   -1.7820    1.0000 </r>
       <r>   -1.7558    1.0000 </r>
       <r>   -1.7269    1.0000 </r>
       <r>   -1.6700    1.0000 </r>
       <r>   -1.5891    1.0000 </r>
       <r>   -1.5804    1.0000 </r>
       <r>   -1.5288    1.0000 </r>
       <r>   -1.4869    1.0000 </r>
       <r>   -1.4673    1.0000 </r>
       <r>   -1.4096    1.0000 </r>
       <r>   -1.3995    1.0000 </r>
       <r>   -1.3594    1.0000 </r>
       <r>   -1.3227    1.0000 </r>
       <r>   -1.3134    1.0000 </r>
       <r>   -1.2511    1.0000 </r>
       <r>   -1.2114    1.0000 </r>
       <r>   -1.2051    1.0000 </r>
       <r>   -1.1799    1.0000 </r>
       <r>   -1.1170    1.0000 </r>
       <r>   -1.0866    1.0000 </r>
       <r>   -1.0761    1.0000 </r>
       <r>   -1.0582    1.0000 </r>
       <r>   -1.0428    1.0000 </r>
       <r>   -1.0228    1.0000 </r>
       <r>   -1.0078    1.0000 </r>
       <r>   -0.9803    1.0000 </r>
       <r>   -0.9563    1.0000 </r>
       <r>   -0.9394    1.0000 </r>
       <r>   -0.8941    1.0000 </r>
       <r>   -0.8840    1.0000 </r>
       <r>   -0.8602    1.0000 </r>
       <r>   -0.8469    1.0000 </r>
       <r>   -0.8319    1.0000 </r>
       <r>   -0.8127    1.0000 </r>
       <r>   -0.8007    1.0000 </r>
       <r>   -0.7901    1.0000 </r>
       <r>   -0.7764    1.0000 </r>
       <r>   -0.7451    1.0000 </r>
       <r>   -0.7416    1.0000 </r>
       <r>   -0.7269    1.0000 </r>
       <r>   -0.7018    1.0000 </r>
       <r>   -0.6718    1.0000 </r>
       <r>   -0.6416    1.0000 </r>
       <r>   -0.6387    1.0000 </r>
       <r>   -0.6267    1.0000 </r>
       <r>   -0.6111    1.0000 </r>
       <r>   -0.6015    1.0000 </r>
       <r>   -0.5624    1.0000 </r>
       <r>   -0.5587    1.0000 </r>
       <r>   -0.5287    1.0000 </r>
       <r>   -0.5114    1.0000 </r>
       <r>   -0.4922    1.0000 </r>
       <r>   -0.4903    1.0000 </r>
       <r>   -0.4688    1.0000 </r>
       <r>   -0.4641    1.0000 </r>
       <r>   -0.4532    1.0000 </r>
       <r>   -0.4344    1.0000 </r>
       <r>   -0.4271    1.0000 </r>
       <r>   -0.4081    1.0000 </r>
       <r>   -0.3915    1.0000 </r>
       <r>   -0.3901    1.0000 </r>
       <r>   -0.3868    1.0000 </r>
       <r>   -0.3695    1.0000 </r>
       <r>   -0.3640    1.0000 </r>
       <r>   -0.3538    1.0000 </r>
       <r>   -0.3415    1.0000 </r>
       <r>   -0.3237    1.0000 </r>
       <r>   -0.3140    1.0000 </r>
       <r>   -0.3058    1.0000 </r>
       <r>   -0.3009    1.0000 </r>
       <r>   -0.2862    1.0000 </r>
       <r>   -0.2832    1.0000 </r>
       <r>   -0.2698    1.0000 </r>
       <r>   -0.2574    1.0000 </r>
       <r>   -0.2483    1.0000 </r>
       <r>   -0.2345    1.0000 </r>
       <r>   -0.2144    1.0000 </r>
       <r>   -0.2039    1.0000 </r>
       <r>   -0.1910    1.0000 </r>
       <r>   -0.1816    1.0000 </r>
       <r>   -0.1688    1.0000 </r>
       <r>   -0.1639    1.0000 </r>
       <r>   -0.1561    1.0000 </r>
       <r>   -0.1468    1.0000 </r>
       <r>   -0.1400    1.0000 </r>
       <r>   -0.1163    1.0000 </r>
       <r>   -0.1028    1.0000 </r>
       <r>   -0.0994    1.0000 </r>
       <r>   -0.0939    1.0000 </r>
       <r>   -0.0830    1.0000 </r>
       <r>   -0.0801    1.0000 </r>
       <r>   -0.0623    1.0000 </r>
       <r>   -0.0517    1.0000 </r>
       <r>   -0.0337    1.0000 </r>
       <r>   -0.0308    1.0000 </r>
       <r>   -0.0175    1.0000 </r>
       <r>   -0.0010    1.0000 </r>
       <r>   -0.0003    1.0000 </r>
       <r>    0.0133    1.0000 </r>
       <r>    0.0269    1.0000 </r>
       <r>    0.0567    1.0000 </r>
       <r>    0.0638    1.0000 </r>
       <r>    0.0692    1.0000 </r>
       <r>    0.0998    1.0000 </r>
       <r>    0.1015    1.0000 </r>
       <r>    0.1084    1.0000 </r>
       <r>    0.1227    1.0000 </r>
       <r>    0.1456    1.0000 </r>
       <r>    0.1550    1.0000 </r>
       <r>    0.1650    1.0000 </r>
       <r>    0.1971    1.0000 </r>
       <r>    0.2082    1.0000 </r>
       <r>    0.2148    1.0000 </r>
       <r>    0.2246    1.0000 </r>
       <r>    0.2621    1.0000 </r>
       <r>    0.2728    1.0000 </r>
       <r>    0.3130    1.0000 </r>
       <r>    0.3224    1.0000 </r>
       <r>    0.3551    1.0000 </r>
       <r>    0.3595    1.0000 </r>
       <r>    0.3912    1.0000 </r>
       <r>    0.4036    1.0000 </r>
       <r>    0.4247    1.0000 </r>
       <r>    0.4336    1.0000 </r>
       <r>    0.4649    1.0000 </r>
       <r>    0.4821    1.0000 </r>
       <r>    0.5129    1.0000 </r>
       <r>    0.5354    1.0000 </r>
       <r>    0.5640    1.0000 </r>
       <r>    0.6060    1.0000 </r>
       <r>    0.6257    1.0000 </r>
       <r>    0.6321    1.0000 </r>
       <r>    0.6504    1.0000 </r>
       <r>    0.6678    1.0000 </r>
       <r>    0.6813    1.0000 </r>
       <r>    0.7100    1.0000 </r>
       <r>    0.7346    1.0000 </r>
       <r>    0.7631    1.0000 </r>
       <r>    0.7887    1.0000 </r>
       <r>    0.8367    0.9999 </r>
       <r>    0.8528    0.9999 </r>
       <r>    0.8608    0.9999 </r>
       <r>    0.8966    0.9997 </r>
       <r>    0.9454    0.9990 </r>
       <r>    0.9671    0.9984 </r>
       <r>    0.9867    0.9975 </r>
       <r>    1.0128    0.9956 </r>
       <r>    1.0509    0.9905 </r>
       <r>    1.0721    0.9860 </r>
       <r>    1.0988    0.9777 </r>
       <r>    1.1630    0.9400 </r>
       <r>    1.2070    0.8931 </r>
       <r>    1.2217    0.8728 </r>
       <r>    1.2793    0.7679 </r>
       <r>    1.3489    0.5948 </r>
       <r>    1.3638    0.5535 </r>
       <r>    1.4224    0.3899 </r>
       <r>    1.4488    0.3205 </r>
       <r>    1.4819    0.2418 </r>
       <r>    1.5111    0.1822 </r>
       <r>    1.5355    0.1402 </r>
       <r>    1.5910    0.0705 </r>
       <r>    1.6366    0.0364 </r>
       <r>    1.6678    0.0220 </r>
       <r>    1.6866    0.0159 </r>
       <r>    1.7390    0.0059 </r>
       <r>    1.7511    0.0046 </r>
       <r>    1.7728    0.0029 </r>
       <r>    1.8281    0.0008 </r>
       <r>    1.8933    0.0002 </r>
       <r>    1.9022    0.0001 </r>
       <r>    1.9291    0.0001 </r>
       <r>    1.9588    0.0000 </r>
       <r>    1.9814    0.0000 </r>
       <r>    2.0392    0.0000 </r>
       <r>    2.0720    0.0000 </r>
       <r>    2.1089    0.0000 </r>
       <r>    2.1303    0.0000 </r>
       <r>    2.1466    0.0000 </r>
       <r>    2.1939    0.0000 </r>
       <r>    2.2072    0.0000 </r>
       <r>    2.2626    0.0000 </r>
       <r>    2.2724    0.0000 </r>
       <r>    2.3061    0.0000 </r>
       <r>    2.3433    0.0000 </r>
       <r>    2.3797    0.0000 </r>
       <r>    2.3960    0.0000 </r>
       <r>    2.4511    0.0000 </r>
       <r>    2.4717    0.0000 </r>
       <r>    2.4895    0.0000 </r>
       <r>    2.5555    0.0000 </r>
       <r>    2.6043    0.0000 </r>
       <r>    2.9744    0.0000 </r>
       <r>    3.5820    0.0000 </r>
       <r>    3.8855    0.0000 </r>
       <r>    4.0200    0.0000 </r>
       <r>    4.4806    0.0000 </r>
       <r>    4.6143    0.0000 </r>
       <r>    4.6506    0.0000 </r>
       <r>    4.7327    0.0000 </r>
       <r>    4.7942    0.0000 </r>
       <r>    5.0360    0.0000 </r>
       <r>    5.1286    0.0000 </r>
       <r>    5.2875    0.0000 </r>
       <r>    5.4948    0.0000 </r>
       <r>    5.5956    0.0000 </r>
       <r>    5.6765    0.0000 </r>
       <r>    5.7020    0.0000 </r>
       <r>    5.8394    0.0000 </r>
       <r>    5.8442    0.0000 </r>
       <r>    5.9099    0.0000 </r>
       <r>    5.9685    0.0000 </r>
       <r>    6.0132    0.0000 </r>
       <r>    6.1581    0.0000 </r>
       <r>    6.2635    0.0000 </r>
       <r>    6.2935    0.0000 </r>
       <r>    6.3562    0.0000 </r>
       <r>    6.4694    0.0000 </r>
       <r>    6.5459    0.0000 </r>
       <r>    6.5650    0.0000 </r>
       <r>    6.6697    0.0000 </r>
       <r>    6.7725    0.0000 </r>
       <r>    6.8091    0.0000 </r>
       <r>    6.8514    0.0000 </r>
       <r>    6.8809    0.0000 </r>
       <r>    6.9248    0.0000 </r>
       <r>    6.9936    0.0000 </r>
       <r>    7.0657    0.0000 </r>
       <r>    7.1212    0.0000 </r>
       <r>    7.1557    0.0000 </r>
       <r>    7.1992    0.0000 </r>
       <r>    7.2585    0.0000 </r>
       <r>    7.2818    0.0000 </r>
       <r>    7.3474    0.0000 </r>
       <r>    7.4151    0.0000 </r>
       <r>    7.4716    0.0000 </r>
       <r>    7.4790    0.0000 </r>
       <r>    7.5258    0.0000 </r>
       <r>    7.5651    0.0000 </r>
       <r>    7.6245    0.0000 </r>
      </set>
     </set>
    </set>
   </array>
  </eigenvalues>
  <separator name="orbital magnetization" >
   <v name="MAGDIPOLOUT">      0.00000000      0.00000000      0.00000000</v>
  </separator>
  <dos>
   <i name="efermi">      1.38282800 </i>
   <total>
    <array>
     <dimension dim="1">gridpoints</dimension>
     <dimension dim="2">spin</dimension>
     <field>energy</field>
     <field>total</field>
     <field>integrated</field>
     <set>
      <set comment="spin 1">
       <r>   -66.3394     0.0000     0.0000 </r>
       <r>   -66.0812     0.0000     0.0000 </r>
       <r>   -65.8229     0.0000     0.0000 </r>
       <r>   -65.5646     0.0000     0.0000 </r>
       <r>   -65.3063     0.0000     0.0000 </r>
       <r>   -65.0480     0.0000     0.0000 </r>
       <r>   -64.7897     0.0000     0.0000 </r>
       <r>   -64.5314     0.0000     0.0000 </r>
       <r>   -64.2732     0.0000     0.0000 </r>
       <r>   -64.0149     0.0000     0.0000 </r>
       <r>   -63.7566     0.0000     0.0000 </r>
       <r>   -63.4983     0.0000     0.0000 </r>
       <r>   -63.2400     0.0566     0.0146 </r>
       <r>   -62.9817    10.6828     2.7739 </r>
       <r>   -62.7234   152.8201    42.2453 </r>
       <r>   -62.4651   286.1540   116.1551 </r>
       <r>   -62.2069   188.6474   164.8803 </r>
       <r>   -61.9486   100.6540   190.8779 </r>
       <r>   -61.6903    54.1745   204.8704 </r>
       <r>   -61.4320    19.5332   209.9156 </r>
       <r>   -61.1737    11.5962   212.9107 </r>
       <r>   -60.9154     6.3181   214.5426 </r>
       <r>   -60.6571     4.8482   215.7949 </r>
       <r>   -60.3989     0.7866   215.9980 </r>
       <r>   -60.1406     0.0077   216.0000 </r>
       <r>   -59.8823     0.0000   216.0000 </r>
       <r>   -59.6240     0.0000   216.0000 </r>
       <r>   -59.3657     0.0000   216.0000 </r>
       <r>   -59.1074     0.0000   216.0000 </r>
       <r>   -58.8491     0.0000   216.0000 </r>
       <r>   -58.5908     0.0000   216.0000 </r>
       <r>   -58.3326     0.0000   216.0000 </r>
       <r>   -58.0743     0.0000   216.0000 </r>
       <r>   -57.8160     0.0000   216.0000 </r>
       <r>   -57.5577     0.0000   216.0000 </r>
       <r>   -57.2994     0.0000   216.0000 </r>
       <r>   -57.0411     0.0000   216.0000 </r>
       <r>   -56.7828     0.0000   216.0000 </r>
       <r>   -56.5245     0.0000   216.0000 </r>
       <r>   -56.2663     0.0000   216.0000 </r>
       <r>   -56.0080     0.0000   216.0000 </r>
       <r>   -55.7497     0.0000   216.0000 </r>
       <r>   -55.4914     0.0000   216.0000 </r>
       <r>   -55.2331     0.0000   216.0000 </r>
       <r>   -54.9748     0.0000   216.0000 </r>
       <r>   -54.7165     0.0000   216.0000 </r>
       <r>   -54.4583     0.0000   216.0000 </r>
       <r>   -54.2000     0.0000   216.0000 </r>
       <r>   -53.9417     0.0000   216.0000 </r>
       <r>   -53.6834     0.0000   216.0000 </r>
       <r>   -53.4251     0.0000   216.0000 </r>
       <r>   -53.1668     0.0000   216.0000 </r>
       <r>   -52.9085     0.0000   216.0000 </r>
       <r>   -52.6502     0.0000   216.0000 </r>
       <r>   -52.3920     0.0000   216.0000 </r>
       <r>   -52.1337     0.0000   216.0000 </r>
       <r>   -51.8754     0.0000   216.0000 </r>
       <r>   -51.6171     0.0000   216.0000 </r>
       <r>   -51.3588     0.0000   216.0000 </r>
       <r>   -51.1005     0.0000   216.0000 </r>
       <r>   -50.8422     0.0000   216.0000 </r>
       <r>   -50.5840     0.0000   216.0000 </r>
       <r>   -50.3257     0.0000   216.0000 </r>
       <r>   -50.0674     0.0000   216.0000 </r>
       <r>   -49.8091     0.0000   216.0000 </r>
       <r>   -49.5508     0.0000   216.0000 </r>
       <r>   -49.2925     0.0000   216.0000 </r>
       <r>   -49.0342     0.0000   216.0000 </r>
       <r>   -48.7759     0.0000   216.0000 </r>
       <r>   -48.5177     0.0000   216.0000 </r>
       <r>   -48.2594     0.0000   216.0000 </r>
       <r>   -48.0011     0.0000   216.0000 </r>
       <r>   -47.7428     0.0000   216.0000 </r>
       <r>   -47.4845     0.0000   216.0000 </r>
       <r>   -47.2262     0.0000   216.0000 </r>
       <r>   -46.9679     0.0000   216.0000 </r>
       <r>   -46.7096     0.0000   216.0000 </r>
       <r>   -46.4514     0.0000   216.0000 </r>
       <r>   -46.1931     0.0000   216.0000 </r>
       <r>   -45.9348     0.0000   216.0000 </r>
       <r>   -45.6765     0.0000   216.0000 </r>
       <r>   -45.4182     0.0000   216.0000 </r>
       <r>   -45.1599     0.0000   216.0000 </r>
       <r>   -44.9016     0.0000   216.0000 </r>
       <r>   -44.6434     0.0000   216.0000 </r>
       <r>   -44.3851     0.0000   216.0000 </r>
       <r>   -44.1268     0.0000   216.0000 </r>
       <r>   -43.8685     0.0000   216.0000 </r>
       <r>   -43.6102     0.0000   216.0000 </r>
       <r>   -43.3519     0.0000   216.0000 </r>
       <r>   -43.0936     0.0000   216.0000 </r>
       <r>   -42.8353     0.0000   216.0000 </r>
       <r>   -42.5771     0.0000   216.0000 </r>
       <r>   -42.3188     0.0000   216.0000 </r>
       <r>   -42.0605     0.0000   216.0000 </r>
       <r>   -41.8022     0.0000   216.0000 </r>
       <r>   -41.5439     0.0000   216.0000 </r>
       <r>   -41.2856     0.0000   216.0000 </r>
       <r>   -41.0273     0.0000   216.0000 </r>
       <r>   -40.7690     0.0000   216.0000 </r>
       <r>   -40.5108     0.0000   216.0000 </r>
       <r>   -40.2525     0.0000   216.0000 </r>
       <r>   -39.9942     0.0000   216.0000 </r>
       <r>   -39.7359     0.0000   216.0000 </r>
       <r>   -39.4776     0.0000   216.0000 </r>
       <r>   -39.2193     0.0000   216.0000 </r>
       <r>   -38.9610     0.0000   216.0000 </r>
       <r>   -38.7028     0.0000   216.0000 </r>
       <r>   -38.4445     0.0000   216.0000 </r>
       <r>   -38.1862     0.0000   216.0000 </r>
       <r>   -37.9279     0.0000   216.0000 </r>
       <r>   -37.6696     0.0000   216.0000 </r>
       <r>   -37.4113     0.0000   216.0000 </r>
       <r>   -37.1530     0.0000   216.0000 </r>
       <r>   -36.8947     0.0000   216.0000 </r>
       <r>   -36.6365     0.0000   216.0000 </r>
       <r>   -36.3782     0.0000   216.0000 </r>
       <r>   -36.1199     0.0000   216.0000 </r>
       <r>   -35.8616     0.0000   216.0000 </r>
       <r>   -35.6033     0.0000   216.0000 </r>
       <r>   -35.3450     0.0000   216.0000 </r>
       <r>   -35.0867     0.0000   216.0000 </r>
       <r>   -34.8285     0.0000   216.0000 </r>
       <r>   -34.5702     0.0000   216.0000 </r>
       <r>   -34.3119     0.0000   216.0000 </r>
       <r>   -34.0536     0.0000   216.0000 </r>
       <r>   -33.7953     0.0000   216.0000 </r>
       <r>   -33.5370     0.0000   216.0000 </r>
       <r>   -33.2787     0.0000   216.0000 </r>
       <r>   -33.0204     0.0000   216.0000 </r>
       <r>   -32.7622     0.0000   216.0000 </r>
       <r>   -32.5039     0.0000   216.0000 </r>
       <r>   -32.2456     0.0000   216.0000 </r>
       <r>   -31.9873     0.0000   216.0000 </r>
       <r>   -31.7290     0.0000   216.0000 </r>
       <r>   -31.4707     0.0000   216.0000 </r>
       <r>   -31.2124     0.0000   216.0000 </r>
       <r>   -30.9541     0.0000   216.0000 </r>
       <r>   -30.6959     0.0000   216.0000 </r>
       <r>   -30.4376     0.0000   216.0000 </r>
       <r>   -30.1793     0.0000   216.0000 </r>
       <r>   -29.9210     0.0000   216.0000 </r>
       <r>   -29.6627     0.0000   216.0000 </r>
       <r>   -29.4044     0.0000   216.0000 </r>
       <r>   -29.1461     0.0000   216.0000 </r>
       <r>   -28.8879     0.0000   216.0000 </r>
       <r>   -28.6296     0.0000   216.0000 </r>
       <r>   -28.3713     0.0000   216.0000 </r>
       <r>   -28.1130     0.0000   216.0000 </r>
       <r>   -27.8547     0.0000   216.0000 </r>
       <r>   -27.5964     0.0000   216.0000 </r>
       <r>   -27.3381     0.0000   216.0000 </r>
       <r>   -27.0798     0.0000   216.0000 </r>
       <r>   -26.8216     0.0000   216.0000 </r>
       <r>   -26.5633     0.0000   216.0000 </r>
       <r>   -26.3050     0.0000   216.0000 </r>
       <r>   -26.0467     0.0000   216.0000 </r>
       <r>   -25.7884     0.0000   216.0000 </r>
       <r>   -25.5301     0.0000   216.0000 </r>
       <r>   -25.2718     0.0000   216.0000 </r>
       <r>   -25.0136     0.0000   216.0000 </r>
       <r>   -24.7553     0.0000   216.0000 </r>
       <r>   -24.4970     0.0000   216.0000 </r>
       <r>   -24.2387     0.0000   216.0000 </r>
       <r>   -23.9804     0.0000   216.0000 </r>
       <r>   -23.7221     0.0000   216.0000 </r>
       <r>   -23.4638     0.0000   216.0000 </r>
       <r>   -23.2055     0.0000   216.0000 </r>
       <r>   -22.9473     0.0000   216.0000 </r>
       <r>   -22.6890     0.0000   216.0000 </r>
       <r>   -22.4307     0.0000   216.0000 </r>
       <r>   -22.1724     0.0000   216.0000 </r>
       <r>   -21.9141     0.0000   216.0000 </r>
       <r>   -21.6558     0.0000   216.0000 </r>
       <r>   -21.3975     0.0000   216.0000 </r>
       <r>   -21.1392     0.0000   216.0000 </r>
       <r>   -20.8810     0.0000   216.0000 </r>
       <r>   -20.6227     0.0000   216.0000 </r>
       <r>   -20.3644     0.0000   216.0000 </r>
       <r>   -20.1061     0.0000   216.0000 </r>
       <r>   -19.8478     0.0000   216.0000 </r>
       <r>   -19.5895     0.0000   216.0000 </r>
       <r>   -19.3312     0.0000   216.0000 </r>
       <r>   -19.0730     0.0000   216.0000 </r>
       <r>   -18.8147     0.0000   216.0000 </r>
       <r>   -18.5564     0.0000   216.0000 </r>
       <r>   -18.2981     0.0000   216.0000 </r>
       <r>   -18.0398     0.0000   216.0000 </r>
       <r>   -17.7815     0.0000   216.0000 </r>
       <r>   -17.5232     0.0000   216.0000 </r>
       <r>   -17.2649     0.0000   216.0000 </r>
       <r>   -17.0067     0.0000   216.0000 </r>
       <r>   -16.7484     0.0000   216.0000 </r>
       <r>   -16.4901     0.0000   216.0000 </r>
       <r>   -16.2318     0.0000   216.0000 </r>
       <r>   -15.9735     0.0000   216.0000 </r>
       <r>   -15.7152     0.0000   216.0000 </r>
       <r>   -15.4569     0.0000   216.0000 </r>
       <r>   -15.1986     0.0000   216.0000 </r>
       <r>   -14.9404     0.0000   216.0000 </r>
       <r>   -14.6821     0.0001   216.0000 </r>
       <r>   -14.4238     0.0530   216.0137 </r>
       <r>   -14.1655     1.9718   216.5230 </r>
       <r>   -13.9072     4.8112   217.7657 </r>
       <r>   -13.6489     1.3692   218.1193 </r>
       <r>   -13.3906     6.7269   219.8568 </r>
       <r>   -13.1324    18.2030   224.5584 </r>
       <r>   -12.8741    21.2732   230.0529 </r>
       <r>   -12.6158    29.0451   237.5549 </r>
       <r>   -12.3575    27.7378   244.7192 </r>
       <r>   -12.0992    36.3145   254.0988 </r>
       <r>   -11.8409    35.4592   263.2574 </r>
       <r>   -11.5826    26.0225   269.9787 </r>
       <r>   -11.3243    19.5782   275.0355 </r>
       <r>   -11.0661    15.6366   279.0742 </r>
       <r>   -10.8078    18.3909   283.8244 </r>
       <r>   -10.5495    13.0986   287.2076 </r>
       <r>   -10.2912     2.9681   287.9742 </r>
       <r>   -10.0329     0.0997   288.0000 </r>
       <r>    -9.7746     0.0002   288.0000 </r>
       <r>    -9.5163     0.0000   288.0000 </r>
       <r>    -9.2581     0.0000   288.0000 </r>
       <r>    -8.9998     0.0000   288.0000 </r>
       <r>    -8.7415     0.0000   288.0000 </r>
       <r>    -8.4832     0.0000   288.0000 </r>
       <r>    -8.2249     0.0000   288.0000 </r>
       <r>    -7.9666     0.0000   288.0000 </r>
       <r>    -7.7083     0.0000   288.0000 </r>
       <r>    -7.4500     0.0000   288.0000 </r>
       <r>    -7.1918     0.0000   288.0000 </r>
       <r>    -6.9335     0.0000   288.0000 </r>
       <r>    -6.6752     0.0000   288.0000 </r>
       <r>    -6.4169     0.0002   288.0000 </r>
       <r>    -6.1586     0.1059   288.0274 </r>
       <r>    -5.9003     4.2629   289.1284 </r>
       <r>    -5.6420    15.9057   293.2367 </r>
       <r>    -5.3837    18.6731   298.0597 </r>
       <r>    -5.1255    29.9511   305.7957 </r>
       <r>    -4.8672    45.9035   317.6519 </r>
       <r>    -4.6089    50.4699   330.6877 </r>
       <r>    -4.3506    44.6936   342.2314 </r>
       <r>    -4.0923    34.6830   351.1896 </r>
       <r>    -3.8340    39.1347   361.2976 </r>
       <r>    -3.5757    40.3111   371.7094 </r>
       <r>    -3.3175    43.7330   383.0051 </r>
       <r>    -3.0592    65.1003   399.8196 </r>
       <r>    -2.8009    73.4242   418.7841 </r>
       <r>    -2.5426    81.3611   439.7986 </r>
       <r>    -2.2843    69.5935   457.7737 </r>
       <r>    -2.0260    47.6907   470.0916 </r>
       <r>    -1.7677    45.2286   481.7735 </r>
       <r>    -1.5094    50.0804   494.7087 </r>
       <r>    -1.2512    59.2784   510.0195 </r>
       <r>    -0.9929    77.8148   530.1180 </r>
       <r>    -0.7346   103.5435   556.8619 </r>
       <r>    -0.4763   127.1771   589.7101 </r>
       <r>    -0.2180   169.3553   633.4524 </r>
       <r>     0.0403   172.4282   677.9883 </r>
       <r>     0.2986   130.1547   711.6056 </r>
       <r>     0.5568    96.1697   736.4449 </r>
       <r>     0.8151    83.6049   758.0390 </r>
       <r>     1.0734    68.4749   775.7251 </r>
       <r>     1.3317    52.9508   789.4017 </r>
       <r>     1.5900    53.5013   803.2203 </r>
       <r>     1.8483    57.7683   818.1411 </r>
       <r>     2.1066    60.7722   833.8378 </r>
       <r>     2.3649    62.5128   849.9840 </r>
       <r>     2.6231    43.9528   861.3365 </r>
       <r>     2.8814    11.9653   864.4269 </r>
       <r>     3.1397     5.1582   865.7592 </r>
       <r>     3.3980     1.6720   866.1911 </r>
       <r>     3.6563     5.1290   867.5158 </r>
       <r>     3.9146     8.0708   869.6004 </r>
       <r>     4.1729     8.1688   871.7103 </r>
       <r>     4.4312     5.3121   873.0824 </r>
       <r>     4.6894    17.9419   877.7165 </r>
       <r>     4.9477    17.7015   882.2886 </r>
       <r>     5.2060    13.5740   885.7946 </r>
       <r>     5.4643    13.1654   889.1950 </r>
       <r>     5.7226    22.4807   895.0015 </r>
       <r>     5.9809    30.2989   902.8273 </r>
       <r>     6.2392    25.3193   909.3670 </r>
       <r>     6.4974    26.7046   916.2644 </r>
       <r>     6.7557    29.7521   923.9490 </r>
       <r>     7.0140    37.2716   933.5758 </r>
       <r>     7.2723    39.7494   943.8425 </r>
       <r>     7.5306    40.0022   954.1745 </r>
       <r>     7.7889    20.6748   959.5146 </r>
       <r>     8.0472     1.8647   959.9962 </r>
       <r>     8.3055     0.0147   960.0000 </r>
       <r>     8.5637     0.0000   960.0000 </r>
       <r>     8.8220     0.0000   960.0000 </r>
       <r>     9.0803     0.0000   960.0000 </r>
       <r>     9.3386     0.0000   960.0000 </r>
       <r>     9.5969     0.0000   960.0000 </r>
       <r>     9.8552     0.0000   960.0000 </r>
       <r>    10.1135     0.0000   960.0000 </r>
       <r>    10.3717     0.0000   960.0000 </r>
       <r>    10.6300     0.0000   960.0000 </r>
       <r>    10.8883     0.0000   960.0000 </r>
       <r>    11.1466     0.0000   960.0000 </r>
      </set>
     </set>
    </array>
   </total>
  </dos>
 </calculation>
 <structure name="finalpos" >
  <crystal>
   <varray name="basis" >
    <v>       9.42510255       3.57329804       0.00000000 </v>
    <v>       0.00000000      10.07973298       0.00000000 </v>
    <v>       0.00000000       0.00000000      20.51013988 </v>
   </varray>
   <i name="volume">   1948.51491473 </i>
   <varray name="rec_basis" >
    <v>       0.10609964       0.00000000       0.00000000 </v>
    <v>      -0.03761267       0.09920898       0.00000000 </v>
    <v>       0.00000000       0.00000000       0.04875637 </v>
   </varray>
  </crystal>
  <varray name="positions" >
   <v>       0.37433215       0.75136220       0.09511235 </v>
   <v>       0.52460066       0.60109368       0.22312232 </v>
   <v>       0.67486918       0.45082517       0.35113229 </v>
   <v>       0.82513769       0.30055666       0.47914226 </v>
   <v>       0.60748648       0.18487454       0.00977237 </v>
   <v>       0.75775499       0.03460603       0.13778234 </v>
   <v>       0.05829201       0.73406900       0.39380228 </v>
   <v>       0.90802350       0.88433751       0.26579231 </v>
   <v>       0.14117783       0.31784985       0.18045233 </v>
   <v>       0.29144634       0.16758134       0.30846230 </v>
   <v>       0.44171485       0.01731283       0.43647227 </v>
   <v>       0.99090931       0.46811837       0.05244236 </v>
   <v>       0.00994000       0.11575434       0.41150025 </v>
   <v>       0.55913447       0.56655988       0.02747034 </v>
   <v>       0.70940298       0.41629137       0.15548031 </v>
   <v>       0.85967149       0.26602286       0.28349028 </v>
   <v>       0.09282582       0.69953520       0.19815030 </v>
   <v>       0.24309433       0.54926668       0.32616027 </v>
   <v>       0.39336284       0.39899817       0.45417024 </v>
   <v>       0.94255730       0.84980371       0.07014033 </v>
   <v>       0.32598014       0.13304754       0.11281032 </v>
   <v>       0.47624865       0.98277903       0.24082029 </v>
   <v>       0.62651717       0.83251052       0.36883026 </v>
   <v>       0.77678568       0.68224200       0.49684023 </v>
   <v>       0.04964185       0.34025850       0.44532126 </v>
   <v>       0.59883631       0.79106404       0.06129134 </v>
   <v>       0.74910482       0.64079553       0.18930132 </v>
   <v>       0.89937333       0.49052701       0.31731129 </v>
   <v>       0.98225915       0.07430787       0.10396133 </v>
   <v>       0.13252766       0.92403935       0.23197131 </v>
   <v>       0.28279617       0.77377084       0.35998128 </v>
   <v>       0.43306468       0.62350233       0.48799125 </v>
   <v>       0.21541347       0.50782021       0.01862135 </v>
   <v>       0.36568198       0.35755170       0.14663132 </v>
   <v>       0.51595050       0.20728318       0.27464130 </v>
   <v>       0.66621901       0.05701467       0.40265127 </v>
   <v>       0.06382158       0.26208477       0.34135992 </v>
   <v>       0.21409009       0.11181626       0.46936989 </v>
   <v>       0.76328455       0.56262179       0.08533998 </v>
   <v>       0.91355307       0.41235328       0.21334995 </v>
   <v>       0.14670739       0.84586562       0.12800997 </v>
   <v>       0.29697590       0.69559711       0.25601994 </v>
   <v>       0.44724442       0.54532860       0.38402991 </v>
   <v>       0.59751293       0.39506009       0.51203988 </v>
   <v>       0.99643888       0.99613414       0.00000000 </v>
   <v>       0.53013023       0.12910945       0.17067996 </v>
   <v>       0.68039874       0.97884094       0.29868993 </v>
   <v>       0.83066725       0.82857243       0.42669990 </v>
   <v>       0.37769571       0.94821064       0.04346280 </v>
   <v>       0.52796422       0.79794212       0.17147277 </v>
   <v>       0.67823274       0.64767361       0.29948274 </v>
   <v>       0.82850125       0.49740510       0.42749271 </v>
   <v>       0.76111855       0.23145446       0.08613279 </v>
   <v>       0.91138706       0.08118595       0.21414276 </v>
   <v>       0.06165557       0.93091744       0.34215273 </v>
   <v>       0.21192409       0.78064893       0.47016270 </v>
   <v>       0.14454139       0.51469829       0.12880278 </v>
   <v>       0.29480990       0.36442978       0.25681275 </v>
   <v>       0.44507841       0.21416127       0.38482272 </v>
   <v>       0.99427287       0.66496681       0.00079281 </v>
   <v>       0.32714088       0.66233547       0.00039640 </v>
   <v>       0.47740939       0.51206696       0.12840637 </v>
   <v>       0.62767790       0.36179845       0.25641634 </v>
   <v>       0.77794641       0.21152993       0.38442631 </v>
   <v>       0.01110074       0.64504228       0.29908633 </v>
   <v>       0.16136925       0.49477376       0.42709630 </v>
   <v>       0.71056371       0.94557930       0.04306639 </v>
   <v>       0.86083223       0.79531079       0.17107636 </v>
   <v>       0.09398655       0.22882313       0.08573638 </v>
   <v>       0.24425506       0.07855462       0.21374635 </v>
   <v>       0.39452358       0.92828610       0.34175632 </v>
   <v>       0.54479209       0.77801759       0.46976629 </v>
  </varray>
 </structure>
</modeling>
