
60 atoms
2 atom types
   0.0000000000    9.5784100000 xlo xhi
   0.0000000000   11.2564630382 ylo yhi
   0.0000000000   17.7113588997 zlo zhi
   0.0000000000    0.0000000000    0.0000000000 xy xz yz

Atoms # atomic

     1      1    0.7736211742    4.8537537005    0.4074774589
     2      1    0.7736211742    4.2700843220    3.4920210239
     3      1    0.7736211742    3.6864149435    6.5765645712
     4      1    5.5628261742    1.7478033418    1.9497492414
     5      1    5.5628261742    1.1641339520    5.0342928064
     6      1    2.0389578704    2.7003394385    0.0000000000
     7      1    2.0389578704    2.1166700599    3.0845435650
     8      1    6.8281628704    5.2226204300    1.5422717825
     9      1    6.8281628704    4.6389510402    4.6268153475
    10      1    6.8281628704    4.0552816616    7.7113588948
    11      1    3.3042945666    4.8537537005    0.4074774589
    12      1    3.3042945666    4.2700843220    3.4920210239
    13      1    3.3042945666    3.6864149435    6.5765645712
    14      1    8.0934995666    1.7478033418    1.9497492414
    15      1    8.0934995666    1.1641339520    5.0342928064
    16      1    0.7736211742   10.4819852196    0.4074774589
    17      1    0.7736211742    9.8983158411    3.4920210239
    18      1    0.7736211742    9.3146464626    6.5765645712
    19      1    5.5628261742    7.3760348609    1.9497492414
    20      1    5.5628261742    6.7923654711    5.0342928064
    21      1    2.0389578704    8.3285709576    0.0000000000
    22      1    2.0389578704    7.7449015790    3.0845435650
    23      1    6.8281628704   10.8508519491    1.5422717825
    24      1    6.8281628704   10.2671825593    4.6268153475
    25      1    6.8281628704    9.6835131807    7.7113588948
    26      1    3.3042945666   10.4819852196    0.4074774589
    27      1    3.3042945666    9.8983158411    3.4920210239
    28      1    3.3042945666    9.3146464626    6.5765645712
    29      1    8.0934995666    7.3760348609    1.9497492414
    30      1    8.0934995666    6.7923654711    5.0342928064
    31      2    3.6501901085    2.9159081912    1.7159079410
    32      2    3.6501901085    2.3322388127    4.8004514883
    33      2    8.4393951085    5.4381891827    3.2581797058
    34      2    8.4393951085    4.8545198041    6.3427232708
    35      2    8.4393951085    0.3936272110    0.1736361585
    36      2    2.0389578704    5.0743156739    5.3193179858
    37      2    2.0389578704    0.0297537135    2.2347744208
    38      2    6.8281628704    3.1357040722    0.6925026560
    39      2    6.8281628704    2.5520346937    3.7770462033
    40      2    6.8281628704    1.9683653152    6.8615897683
    41      2    0.4277256322    2.9159081912    1.7159079410
    42      2    0.4277256322    2.3322388127    4.8004514883
    43      2    5.2169306322    5.4381891827    3.2581797058
    44      2    5.2169306322    4.8545198041    6.3427232708
    45      2    5.2169306322    0.3936272110    0.1736361585
    46      2    3.6501901085    8.5441397103    1.7159079410
    47      2    3.6501901085    7.9604703318    4.8004514883
    48      2    8.4393951085   11.0664207018    3.2581797058
    49      2    8.4393951085   10.4827513232    6.3427232708
    50      2    8.4393951085    6.0218587301    0.1736361585
    51      2    2.0389578704   10.7025471930    5.3193179858
    52      2    2.0389578704    5.6579852326    2.2347744208
    53      2    6.8281628704    8.7639355913    0.6925026560
    54      2    6.8281628704    8.1802662128    3.7770462033
    55      2    6.8281628704    7.5965968343    6.8615897683
    56      2    0.4277256322    8.5441397103    1.7159079410
    57      2    0.4277256322    7.9604703318    4.8004514883
    58      2    5.2169306322   11.0664207018    3.2581797058
    59      2    5.2169306322   10.4827513232    6.3427232708
    60      2    5.2169306322    6.0218587301    0.1736361585
