<?xml version="1.0" encoding="ISO-8859-1"?>
<modeling>
 <generator>
  <i name="program" type="string">vasp </i>
  <i name="version" type="string">6.1.0  </i>
  <i name="subversion" type="string">28Jan20 (build Mar 31 2020 17:42:31) gamma-only                       parallel </i>
  <i name="platform" type="string">LinuxIFC </i>
  <i name="date" type="string">2020 04 12 </i>
  <i name="time" type="string">08:38:17 </i>
 </generator>
 <incar>
  <i type="string" name="SYSTEM">"Millerite NiS"</i>
  <i type="int" name="NSIM">     4</i>
  <i type="int" name="NELM">   100</i>
  <i name="ENCUT">    450.00000000</i>
  <i type="string" name="LREAL">A</i>
  <i type="int" name="ISMEAR">     0</i>
  <i type="int" name="NWRITE">     2</i>
  <i type="logical" name="LWAVE"> F  </i>
  <i type="logical" name="LCHARG"> F  </i>
  <i type="int" name="NCORE">     6</i>
  <i type="int" name="NELM">   100</i>
 </incar>
 <structure name="primitive_cell" >
  <crystal>
   <varray name="basis" >
    <v>      16.88469405       0.00000000       0.00000000 </v>
    <v>       0.00000000       9.57841000       0.00000000 </v>
    <v>       0.00000000       0.00000000      16.16908712 </v>
   </varray>
   <i name="volume">   2615.00256803 </i>
   <varray name="rec_basis" >
    <v>       0.05922524       0.00000000       0.00000000 </v>
    <v>       0.00000000       0.10440146       0.00000000 </v>
    <v>       0.00000000       0.00000000       0.06184641 </v>
   </varray>
  </crystal>
  <varray name="positions" >
   <v>       0.78004631       0.14529695       0.12058499 </v>
   <v>       0.81461426       0.14529695       0.31135294 </v>
   <v>       0.26276233       0.64529695       0.02520102 </v>
   <v>       0.29733029       0.64529695       0.21596897 </v>
   <v>       0.43519032       0.14529695       0.05699568 </v>
   <v>       0.46975828       0.14529695       0.24776362 </v>
   <v>       0.95247430       0.64529695       0.15237965 </v>
   <v>       0.98704226       0.64529695       0.34314760 </v>
   <v>       0.12490229       0.14529695       0.18417431 </v>
   <v>       0.15947025       0.14529695       0.37494226 </v>
   <v>       0.64218627       0.64529695       0.27955828 </v>
   <v>       0.90758278       0.01319395       0.09538397 </v>
   <v>       0.39029880       0.51319395       0.00000000 </v>
   <v>       0.42486675       0.51319395       0.19076795 </v>
   <v>       0.45943471       0.51319395       0.38153589 </v>
   <v>       0.56272679       0.01319395       0.03179466 </v>
   <v>       0.59729475       0.01319395       0.22256261 </v>
   <v>       0.08001077       0.51319395       0.12717863 </v>
   <v>       0.11457873       0.51319395       0.31794658 </v>
   <v>       0.25243876       0.01319395       0.15897329 </v>
   <v>       0.28700672       0.01319395       0.34974124 </v>
   <v>       0.73515478       0.51319395       0.06358932 </v>
   <v>       0.76972274       0.51319395       0.25435726 </v>
   <v>       0.90758278       0.27739995       0.09538397 </v>
   <v>       0.94215073       0.27739995       0.28615192 </v>
   <v>       0.39029880       0.77739995       0.00000000 </v>
   <v>       0.42486675       0.77739995       0.19076795 </v>
   <v>       0.45943471       0.77739995       0.38153589 </v>
   <v>       0.56272679       0.27739995       0.03179466 </v>
   <v>       0.59729475       0.27739995       0.22256261 </v>
   <v>       0.08001077       0.77739995       0.12717863 </v>
   <v>       0.11457873       0.77739995       0.31794658 </v>
   <v>       0.25243876       0.27739995       0.15897329 </v>
   <v>       0.28700672       0.27739995       0.34974124 </v>
   <v>       0.73515478       0.77739995       0.06358932 </v>
   <v>       0.76972274       0.77739995       0.25435726 </v>
   <v>       0.02602916       0.14529695       0.37317765 </v>
   <v>       0.99146121       0.14529695       0.18240970 </v>
   <v>       0.47417723       0.64529695       0.08702573 </v>
   <v>       0.50874518       0.64529695       0.27779368 </v>
   <v>       0.64660522       0.14529695       0.11882039 </v>
   <v>       0.68117318       0.14529695       0.30958834 </v>
   <v>       0.12932124       0.64529695       0.02343641 </v>
   <v>       0.16388920       0.64529695       0.21420436 </v>
   <v>       0.30174923       0.14529695       0.05523107 </v>
   <v>       0.33631719       0.14529695       0.24599902 </v>
   <v>       0.81903321       0.64529695       0.15061505 </v>
   <v>       0.85360117       0.64529695       0.34138299 </v>
   <v>       0.79449310       0.31351195       0.02373179 </v>
   <v>       0.82906105       0.31351195       0.21449973 </v>
   <v>       0.31177708       0.81351195       0.11911576 </v>
   <v>       0.34634503       0.81351195       0.30988371 </v>
   <v>       0.48420507       0.31351195       0.15091042 </v>
   <v>       0.51877303       0.31351195       0.34167837 </v>
   <v>       0.00148905       0.81351195       0.24629439 </v>
   <v>       0.96692109       0.81351195       0.05552644 </v>
   <v>       0.13934908       0.31351195       0.08732110 </v>
   <v>       0.17391704       0.31351195       0.27808905 </v>
   <v>       0.65663306       0.81351195       0.18270508 </v>
   <v>       0.69120102       0.81351195       0.37347302 </v>
   <v>       0.31177708       0.47708195       0.11911576 </v>
   <v>       0.34634503       0.47708195       0.30988371 </v>
   <v>       0.79449310       0.97708195       0.02373179 </v>
   <v>       0.82906105       0.97708195       0.21449973 </v>
   <v>       0.00148905       0.47708195       0.24629439 </v>
   <v>       0.96692109       0.47708195       0.05552644 </v>
   <v>       0.48420507       0.97708195       0.15091042 </v>
   <v>       0.51877303       0.97708195       0.34167837 </v>
   <v>       0.65663306       0.47708195       0.18270508 </v>
   <v>       0.69120102       0.47708195       0.37347302 </v>
   <v>       0.13934908       0.97708195       0.08732110 </v>
   <v>       0.17391704       0.97708195       0.27808905 </v>
  </varray>
 </structure>
 <varray name="primitive_index" >
  <v type="int" >        1 </v>
  <v type="int" >        2 </v>
  <v type="int" >        3 </v>
  <v type="int" >        4 </v>
  <v type="int" >        5 </v>
  <v type="int" >        6 </v>
  <v type="int" >        7 </v>
  <v type="int" >        8 </v>
  <v type="int" >        9 </v>
  <v type="int" >       10 </v>
  <v type="int" >       11 </v>
  <v type="int" >       12 </v>
  <v type="int" >       13 </v>
  <v type="int" >       14 </v>
  <v type="int" >       15 </v>
  <v type="int" >       16 </v>
  <v type="int" >       17 </v>
  <v type="int" >       18 </v>
  <v type="int" >       19 </v>
  <v type="int" >       20 </v>
  <v type="int" >       21 </v>
  <v type="int" >       22 </v>
  <v type="int" >       23 </v>
  <v type="int" >       24 </v>
  <v type="int" >       25 </v>
  <v type="int" >       26 </v>
  <v type="int" >       27 </v>
  <v type="int" >       28 </v>
  <v type="int" >       29 </v>
  <v type="int" >       30 </v>
  <v type="int" >       31 </v>
  <v type="int" >       32 </v>
  <v type="int" >       33 </v>
  <v type="int" >       34 </v>
  <v type="int" >       35 </v>
  <v type="int" >       36 </v>
  <v type="int" >       37 </v>
  <v type="int" >       38 </v>
  <v type="int" >       39 </v>
  <v type="int" >       40 </v>
  <v type="int" >       41 </v>
  <v type="int" >       42 </v>
  <v type="int" >       43 </v>
  <v type="int" >       44 </v>
  <v type="int" >       45 </v>
  <v type="int" >       46 </v>
  <v type="int" >       47 </v>
  <v type="int" >       48 </v>
  <v type="int" >       49 </v>
  <v type="int" >       50 </v>
  <v type="int" >       51 </v>
  <v type="int" >       52 </v>
  <v type="int" >       53 </v>
  <v type="int" >       54 </v>
  <v type="int" >       55 </v>
  <v type="int" >       56 </v>
  <v type="int" >       57 </v>
  <v type="int" >       58 </v>
  <v type="int" >       59 </v>
  <v type="int" >       60 </v>
  <v type="int" >       61 </v>
  <v type="int" >       62 </v>
  <v type="int" >       63 </v>
  <v type="int" >       64 </v>
  <v type="int" >       65 </v>
  <v type="int" >       66 </v>
  <v type="int" >       67 </v>
  <v type="int" >       68 </v>
  <v type="int" >       69 </v>
  <v type="int" >       70 </v>
  <v type="int" >       71 </v>
  <v type="int" >       72 </v>
 </varray>
 <kpoints>
  <generation param="Gamma">
   <v type="int" name="divisions">       1        1        1 </v>
   <v name="usershift">      0.00000000       0.00000000       0.00000000 </v>
   <v name="genvec1">      1.00000000       0.00000000       0.00000000 </v>
   <v name="genvec2">      0.00000000       1.00000000       0.00000000 </v>
   <v name="genvec3">      0.00000000       0.00000000       1.00000000 </v>
   <v name="shift">      0.00000000       0.00000000       0.00000000 </v>
  </generation>
  <varray name="kpointlist" >
   <v>       0.00000000       0.00000000       0.00000000 </v>
  </varray>
  <varray name="weights" >
   <v>       1.00000000 </v>
  </varray>
 </kpoints>
 <parameters>
  <separator name="general" >
   <i type="string" name="SYSTEM">"Millerite NiS"</i>
   <i type="logical" name="LCOMPAT"> F  </i>
  </separator>
  <separator name="electronic" >
   <i type="string" name="PREC">normal</i>
   <i name="ENMAX">    450.00000000</i>
   <i name="ENAUG">    703.44300000</i>
   <i name="EDIFF">      0.00010000</i>
   <i type="int" name="IALGO">    38</i>
   <i type="int" name="IWAVPR">    10</i>
   <i type="int" name="NBANDS">   480</i>
   <i type="int" name="NBANDSLOW">    -1</i>
   <i type="int" name="NBANDSHIGH">    -1</i>
   <i name="NELECT">    792.00000000</i>
   <i type="int" name="TURBO">     0</i>
   <i type="int" name="IRESTART">     0</i>
   <i type="int" name="NREBOOT">     0</i>
   <i type="int" name="NMIN">     0</i>
   <i name="EREF">      0.00000000</i>
   <separator name="electronic smearing" >
    <i type="int" name="ISMEAR">     0</i>
    <i name="SIGMA">      0.20000000</i>
    <i name="KSPACING">      0.50000000</i>
    <i type="logical" name="KGAMMA"> T  </i>
    <i type="logical" name="KBLOWUP"> T  </i>
   </separator>
   <separator name="electronic projectors" >
    <i type="logical" name="LREAL"> T  </i>
    <v name="ROPT">     -0.00050000     -0.00050000</v>
    <i type="int" name="LMAXPAW">  -100</i>
    <i type="int" name="LMAXMIX">     2</i>
    <i type="logical" name="NLSPLINE"> F  </i>
   </separator>
   <separator name="electronic startup" >
    <i type="int" name="ISTART">     0</i>
    <i type="int" name="ICHARG">     2</i>
    <i type="int" name="INIWAV">     1</i>
   </separator>
   <separator name="electronic spin" >
    <i type="int" name="ISPIN">     1</i>
    <i type="logical" name="LNONCOLLINEAR"> F  </i>
    <v name="MAGMOM">      1.00000000      1.00000000      1.00000000      1.00000000      1.00000000      1.00000000      1.00000000      1.00000000      1.00000000      1.00000000      1.00000000      1.00000000      1.00000000      1.00000000      1.00000000      1.00000000      1.00000000      1.00000000      1.00000000      1.00000000
      1.00000000      1.00000000      1.00000000      1.00000000      1.00000000      1.00000000      1.00000000      1.00000000      1.00000000      1.00000000      1.00000000      1.00000000      1.00000000      1.00000000      1.00000000      1.00000000      1.00000000      1.00000000      1.00000000      1.00000000
      1.00000000      1.00000000      1.00000000      1.00000000      1.00000000      1.00000000      1.00000000      1.00000000      1.00000000      1.00000000      1.00000000      1.00000000      1.00000000      1.00000000      1.00000000      1.00000000      1.00000000      1.00000000      1.00000000      1.00000000
      1.00000000      1.00000000      1.00000000      1.00000000      1.00000000      1.00000000      1.00000000      1.00000000      1.00000000      1.00000000      1.00000000      1.00000000</v>
    <i name="NUPDOWN">     -1.00000000</i>
    <i type="logical" name="LSORBIT"> F  </i>
    <v name="SAXIS">      0.00000000      0.00000000      1.00000000</v>
    <i type="logical" name="LSPIRAL"> F  </i>
    <v name="QSPIRAL">      0.00000000      0.00000000      0.00000000</v>
    <i type="logical" name="LZEROZ"> F  </i>
   </separator>
   <separator name="electronic exchange-correlation" >
    <i type="logical" name="LASPH"> F  </i>
    <i type="logical" name="LMETAGGA"> F  </i>
   </separator>
   <separator name="electronic convergence" >
    <i type="int" name="NELM">   100</i>
    <i type="int" name="NELMDL">    -5</i>
    <i type="int" name="NELMIN">     2</i>
    <i name="ENINI">    450.00000000</i>
    <separator name="electronic convergence detail" >
     <i type="logical" name="LDIAG"> T  </i>
     <i type="logical" name="LSUBROT"> F  </i>
     <i name="WEIMIN">      0.00000000</i>
     <i name="EBREAK">      0.00000005</i>
     <i name="DEPER">      0.30000000</i>
     <i type="int" name="NRMM">     4</i>
     <i name="TIME">      0.40000000</i>
    </separator>
   </separator>
   <separator name="electronic mixer" >
    <i name="AMIX">      0.40000000</i>
    <i name="BMIX">      1.00000000</i>
    <i name="AMIN">      0.10000000</i>
    <i name="AMIX_MAG">      1.60000000</i>
    <i name="BMIX_MAG">      1.00000000</i>
    <separator name="electronic mixer details" >
     <i type="int" name="IMIX">     4</i>
     <i type="logical" name="MIXFIRST"> F  </i>
     <i type="int" name="MAXMIX">   -45</i>
     <i name="WC">    100.00000000</i>
     <i type="int" name="INIMIX">     1</i>
     <i type="int" name="MIXPRE">     1</i>
     <i type="int" name="MREMOVE">     5</i>
    </separator>
   </separator>
   <separator name="electronic dipolcorrection" >
    <i type="logical" name="LDIPOL"> F  </i>
    <i type="logical" name="LMONO"> F  </i>
    <i type="int" name="IDIPOL">     0</i>
    <i name="EPSILON">      1.00000000</i>
    <v name="DIPOL">   -100.00000000   -100.00000000   -100.00000000</v>
    <i name="EFIELD">      0.00000000</i>
   </separator>
  </separator>
  <separator name="grids" >
   <i type="int" name="NGX">    90</i>
   <i type="int" name="NGY">    50</i>
   <i type="int" name="NGZ">    84</i>
   <i type="int" name="NGXF">   180</i>
   <i type="int" name="NGYF">   100</i>
   <i type="int" name="NGZF">   168</i>
   <i type="logical" name="ADDGRID"> F  </i>
  </separator>
  <separator name="ionic" >
   <i type="int" name="NSW">     0</i>
   <i type="int" name="IBRION">    -1</i>
   <i type="int" name="MDALGO">     0</i>
   <i type="int" name="ISIF">     2</i>
   <i name="PSTRESS">      0.00000000</i>
   <i name="EDIFFG">      0.00100000</i>
   <i type="int" name="NFREE">     0</i>
   <i name="POTIM">      0.50000000</i>
   <i name="SMASS">     -3.00000000</i>
   <i name="SCALEE">      1.00000000</i>
  </separator>
  <separator name="ionic md" >
   <i name="TEBEG">      0.00010000</i>
   <i name="TEEND">      0.00010000</i>
   <i type="int" name="NBLOCK">     1</i>
   <i type="int" name="KBLOCK">     1</i>
   <i type="int" name="NPACO">   256</i>
   <i name="APACO">     16.00000000</i>
  </separator>
  <separator name="symmetry" >
   <i type="int" name="ISYM">     2</i>
   <i name="SYMPREC">      0.00001000</i>
  </separator>
  <separator name="dos" >
   <i type="int" name="LORBIT">     0</i>
   <v name="RWIGS">     -1.00000000     -1.00000000</v>
   <i type="int" name="NEDOS">   301</i>
   <i name="EMIN">     10.00000000</i>
   <i name="EMAX">    -10.00000000</i>
   <i name="EFERMI">      0.00000000</i>
  </separator>
  <separator name="writing" >
   <i type="int" name="NWRITE">     2</i>
   <i type="logical" name="LWAVE"> F  </i>
   <i type="logical" name="LDOWNSAMPLE"> F  </i>
   <i type="logical" name="LCHARG"> F  </i>
   <i type="logical" name="LPARD"> F  </i>
   <i type="logical" name="LVTOT"> F  </i>
   <i type="logical" name="LVHAR"> F  </i>
   <i type="logical" name="LELF"> F  </i>
   <i type="logical" name="LOPTICS"> F  </i>
   <v name="STM">      0.00000000      0.00000000      0.00000000      0.00000000      0.00000000      0.00000000      0.00000000</v>
  </separator>
  <separator name="performance" >
   <i type="int" name="NPAR">     8</i>
   <i type="int" name="NSIM">     4</i>
   <i type="int" name="NBLK">    -1</i>
   <i type="logical" name="LPLANE"> T  </i>
   <i type="logical" name="LSCALAPACK"> T  </i>
   <i type="logical" name="LSCAAWARE"> F  </i>
   <i type="logical" name="LSCALU"> F  </i>
   <i type="logical" name="LASYNC"> F  </i>
   <i type="logical" name="LORBITALREAL"> F  </i>
  </separator>
  <separator name="miscellaneous" >
   <i type="int" name="IDIOT">     3</i>
   <i type="int" name="PHON_NSTRUCT">    -1</i>
   <i type="logical" name="LMUSIC"> F  </i>
   <v name="POMASS">     58.69000000     32.06600000</v>
   <v name="DARWINR">      0.00000000      0.00000000</v>
   <v name="DARWINV">      1.00000000      1.00000000</v>
   <i type="logical" name="LCORR"> T  </i>
  </separator>
  <i type="logical" name="GGA_COMPAT"> T  </i>
  <i type="logical" name="LBERRY"> F  </i>
  <i type="int" name="ICORELEVEL">     0</i>
  <i type="logical" name="LDAU"> F  </i>
  <i type="int" name="I_CONSTRAINED_M">     0</i>
  <separator name="electronic exchange-correlation" >
   <i type="string" name="GGA">--</i>
   <i type="int" name="VOSKOWN">     0</i>
   <i type="logical" name="LHFCALC"> F  </i>
   <i type="string" name="PRECFOCK"></i>
   <i type="logical" name="LSYMGRAD"> F  </i>
   <i type="logical" name="LHFONE"> F  </i>
   <i type="logical" name="LRHFCALC"> F  </i>
   <i type="logical" name="LTHOMAS"> F  </i>
   <i type="logical" name="LMODELHF"> F  </i>
   <i type="logical" name="LFOCKACE"> F  </i>
   <i name="ENCUT4O">     -1.00000000</i>
   <i type="int" name="EXXOEP">     0</i>
   <i type="int" name="FOURORBIT">     0</i>
   <i name="AEXX">      0.00000000</i>
   <i name="HFALPHA">      0.00000000</i>
   <i name="MCALPHA">      0.00000000</i>
   <i name="ALDAX">      1.00000000</i>
   <i name="AGGAX">      1.00000000</i>
   <i name="ALDAC">      1.00000000</i>
   <i name="AGGAC">      1.00000000</i>
   <i type="int" name="NKREDX">     1</i>
   <i type="int" name="NKREDY">     1</i>
   <i type="int" name="NKREDZ">     1</i>
   <i type="logical" name="SHIFTRED"> F  </i>
   <i type="logical" name="ODDONLY"> F  </i>
   <i type="logical" name="EVENONLY"> F  </i>
   <i type="int" name="LMAXFOCK">     0</i>
   <i type="int" name="NMAXFOCKAE">     0</i>
   <i type="logical" name="LFOCKAEDFT"> F  </i>
   <i name="HFSCREEN">      0.00000000</i>
   <i name="HFSCREENC">      0.00000000</i>
   <i type="int" name="NBANDSGWLOW">     0</i>
  </separator>
  <separator name="vdW DFT" >
   <i type="logical" name="LUSE_VDW"> F  </i>
   <i name="Zab_VDW">     -0.84910000</i>
   <i name="PARAM1">      0.12340000</i>
   <i name="PARAM2">      1.00000000</i>
   <i name="PARAM3">      0.00000000</i>
  </separator>
  <separator name="model GW" >
   <i type="int" name="MODEL_GW">     0</i>
   <i name="MODEL_EPS0">     21.79168807</i>
   <i name="MODEL_ALPHA">      1.00000000</i>
  </separator>
  <separator name="linear response parameters" >
   <i type="logical" name="LEPSILON"> F  </i>
   <i type="logical" name="LRPA"> F  </i>
   <i type="logical" name="LNABLA"> F  </i>
   <i type="logical" name="LVEL"> F  </i>
   <i type="int" name="KINTER">     0</i>
   <i name="CSHIFT">      0.10000000</i>
   <i name="OMEGAMAX">     -1.00000000</i>
   <i name="DEG_THRESHOLD">      0.00200000</i>
   <i name="RTIME">     -0.10000000</i>
   <i name="WPLASMAI">      0.00000000</i>
   <v name="DFIELD">      0.00000000      0.00000000      0.00000000</v>
   <v name="WPLASMA">      0.00000000      0.00000000      0.00000000      0.00000000      0.00000000      0.00000000      0.00000000      0.00000000      0.00000000</v>
  </separator>
  <separator name="orbital magnetization" >
   <i type="logical" name="NUCIND"> F  </i>
   <v name="MAGPOS">      0.00000000      0.00000000      0.00000000</v>
   <i type="logical" name="LNICSALL"> T  </i>
   <i type="logical" name="ORBITALMAG"> F  </i>
   <i type="logical" name="LMAGBLOCH"> F  </i>
   <i type="logical" name="LCHIMAG"> F  </i>
   <i type="logical" name="LGAUGE"> T  </i>
   <i type="int" name="MAGATOM">     0</i>
   <v name="MAGDIPOL">      0.00000000      0.00000000      0.00000000</v>
   <v name="AVECCONST">      0.00000000      0.00000000      0.00000000</v>
  </separator>
  <separator name="response functions" >
   <i type="logical" name="LFINITE_TEMPERATURE"> F  </i>
   <i type="logical" name="LADDER"> F  </i>
   <i type="logical" name="LRPAFORCE"> F  </i>
   <i type="logical" name="LFXC"> F  </i>
   <i type="logical" name="LHARTREE"> T  </i>
   <i type="int" name="IBSE">     0</i>
   <v type="int" name="KPOINT">    -1     0     0     0</v>
   <i type="logical" name="LTCTC"> F  </i>
   <i type="logical" name="LTCTE"> F  </i>
   <i type="logical" name="LTETE"> F  </i>
   <i type="logical" name="LTRIPLET"> F  </i>
   <i type="logical" name="LFXCEPS"> F  </i>
   <i type="logical" name="LFXHEG"> F  </i>
   <i type="int" name="NATURALO">     2</i>
   <i type="logical" name="LHOLEGF"> F  </i>
   <i type="logical" name="L2ORDER"> F  </i>
   <i type="logical" name="LDMP1"> F  </i>
   <i type="logical" name="LMP2LT"> F  </i>
   <i type="logical" name="LSMP2LT"> F  </i>
   <i type="logical" name="LGWLF"> F  </i>
   <i name="ENCUTGW">     -2.00000000</i>
   <i name="ENCUTGWSOFT">     -2.00000000</i>
   <i name="ENCUTLF">     -1.00000000</i>
   <i type="logical" name="LESF_SPLINES"> F  </i>
   <i type="int" name="LMAXMP2">    -1</i>
   <i name="SCISSOR">      0.00000000</i>
   <i type="int" name="NOMEGA">     0</i>
   <i type="int" name="NOMEGAR">     0</i>
   <i type="int" name="NBANDSGW">    -1</i>
   <i type="int" name="NBANDSO">    -1</i>
   <i type="int" name="NBANDSV">    -1</i>
   <i type="int" name="NELM">   100</i>
   <i type="int" name="NELMHF">     1</i>
   <i type="int" name="DIM">     3</i>
   <i type="int" name="IESPILON">     4</i>
   <i type="int" name="ANTIRES">     0</i>
   <i name="OMEGAMAX">    -30.00000000</i>
   <i name="OMEGAMIN">    -30.00000000</i>
   <i name="OMEGATL">   -200.00000000</i>
   <i type="int" name="OMEGAGRID">     0</i>
   <i name="CSHIFT">     -0.10000000</i>
   <i type="logical" name="LSELFENERGY"> F  </i>
   <i type="logical" name="LSPECTRAL"> F  </i>
   <i type="logical" name="LSPECTRALGW"> F  </i>
   <i type="logical" name="LSINGLES"> F  </i>
   <i type="logical" name="LFERMIGW"> F  </i>
   <i type="logical" name="ODDONLYGW"> F  </i>
   <i type="logical" name="EVENONLYGW"> F  </i>
   <i type="int" name="NKREDLFX">     1</i>
   <i type="int" name="NKREDLFY">     1</i>
   <i type="int" name="NKREDLFZ">     1</i>
   <i type="int" name="MAXMEM">  2800</i>
   <i type="int" name="TELESCOPE">     0</i>
   <i type="int" name="NTAUPAR">    -1</i>
   <i type="int" name="NOMEGAPAR">    -1</i>
   <i name="LAMBDA">      1.00000000</i>
  </separator>
  <separator name="External order field" >
   <i name="OFIELD_KAPPA">      0.00000000</i>
   <v name="OFIELD_K">      0.00000000      0.00000000      0.00000000</v>
   <i name="OFIELD_Q6_NEAR">      0.00000000</i>
   <i name="OFIELD_Q6_FAR">      0.00000000</i>
   <i name="OFIELD_A">      0.00000000</i>
  </separator>
 </parameters>
 <atominfo>
  <atoms>      72 </atoms>
  <types>       2 </types>
  <array name="atoms" >
   <dimension dim="1">ion</dimension>
   <field type="string">element</field>
   <field type="int">atomtype</field>
   <set>
    <rc><c>Ni</c><c>   1</c></rc>
    <rc><c>Ni</c><c>   1</c></rc>
    <rc><c>Ni</c><c>   1</c></rc>
    <rc><c>Ni</c><c>   1</c></rc>
    <rc><c>Ni</c><c>   1</c></rc>
    <rc><c>Ni</c><c>   1</c></rc>
    <rc><c>Ni</c><c>   1</c></rc>
    <rc><c>Ni</c><c>   1</c></rc>
    <rc><c>Ni</c><c>   1</c></rc>
    <rc><c>Ni</c><c>   1</c></rc>
    <rc><c>Ni</c><c>   1</c></rc>
    <rc><c>Ni</c><c>   1</c></rc>
    <rc><c>Ni</c><c>   1</c></rc>
    <rc><c>Ni</c><c>   1</c></rc>
    <rc><c>Ni</c><c>   1</c></rc>
    <rc><c>Ni</c><c>   1</c></rc>
    <rc><c>Ni</c><c>   1</c></rc>
    <rc><c>Ni</c><c>   1</c></rc>
    <rc><c>Ni</c><c>   1</c></rc>
    <rc><c>Ni</c><c>   1</c></rc>
    <rc><c>Ni</c><c>   1</c></rc>
    <rc><c>Ni</c><c>   1</c></rc>
    <rc><c>Ni</c><c>   1</c></rc>
    <rc><c>Ni</c><c>   1</c></rc>
    <rc><c>Ni</c><c>   1</c></rc>
    <rc><c>Ni</c><c>   1</c></rc>
    <rc><c>Ni</c><c>   1</c></rc>
    <rc><c>Ni</c><c>   1</c></rc>
    <rc><c>Ni</c><c>   1</c></rc>
    <rc><c>Ni</c><c>   1</c></rc>
    <rc><c>Ni</c><c>   1</c></rc>
    <rc><c>Ni</c><c>   1</c></rc>
    <rc><c>Ni</c><c>   1</c></rc>
    <rc><c>Ni</c><c>   1</c></rc>
    <rc><c>Ni</c><c>   1</c></rc>
    <rc><c>Ni</c><c>   1</c></rc>
    <rc><c>S </c><c>   2</c></rc>
    <rc><c>S </c><c>   2</c></rc>
    <rc><c>S </c><c>   2</c></rc>
    <rc><c>S </c><c>   2</c></rc>
    <rc><c>S </c><c>   2</c></rc>
    <rc><c>S </c><c>   2</c></rc>
    <rc><c>S </c><c>   2</c></rc>
    <rc><c>S </c><c>   2</c></rc>
    <rc><c>S </c><c>   2</c></rc>
    <rc><c>S </c><c>   2</c></rc>
    <rc><c>S </c><c>   2</c></rc>
    <rc><c>S </c><c>   2</c></rc>
    <rc><c>S </c><c>   2</c></rc>
    <rc><c>S </c><c>   2</c></rc>
    <rc><c>S </c><c>   2</c></rc>
    <rc><c>S </c><c>   2</c></rc>
    <rc><c>S </c><c>   2</c></rc>
    <rc><c>S </c><c>   2</c></rc>
    <rc><c>S </c><c>   2</c></rc>
    <rc><c>S </c><c>   2</c></rc>
    <rc><c>S </c><c>   2</c></rc>
    <rc><c>S </c><c>   2</c></rc>
    <rc><c>S </c><c>   2</c></rc>
    <rc><c>S </c><c>   2</c></rc>
    <rc><c>S </c><c>   2</c></rc>
    <rc><c>S </c><c>   2</c></rc>
    <rc><c>S </c><c>   2</c></rc>
    <rc><c>S </c><c>   2</c></rc>
    <rc><c>S </c><c>   2</c></rc>
    <rc><c>S </c><c>   2</c></rc>
    <rc><c>S </c><c>   2</c></rc>
    <rc><c>S </c><c>   2</c></rc>
    <rc><c>S </c><c>   2</c></rc>
    <rc><c>S </c><c>   2</c></rc>
    <rc><c>S </c><c>   2</c></rc>
    <rc><c>S </c><c>   2</c></rc>
   </set>
  </array>
  <array name="atomtypes" >
   <dimension dim="1">type</dimension>
   <field type="int">atomspertype</field>
   <field type="string">element</field>
   <field>mass</field>
   <field>valence</field>
   <field type="string">pseudopotential</field>
   <set>
    <rc><c>  36</c><c>Ni</c><c>     58.69000000</c><c>     16.00000000</c><c>  PAW_PBE Ni_pv 06Sep2000               </c></rc>
    <rc><c>  36</c><c>S </c><c>     32.06600000</c><c>      6.00000000</c><c>  PAW_PBE S 06Sep2000                   </c></rc>
   </set>
  </array>
 </atominfo>
 <structure name="initialpos" >
  <crystal>
   <varray name="basis" >
    <v>      16.88469405       0.00000000       0.00000000 </v>
    <v>       0.00000000       9.57841000       0.00000000 </v>
    <v>       0.00000000       0.00000000      16.16908712 </v>
   </varray>
   <i name="volume">   2615.00256803 </i>
   <varray name="rec_basis" >
    <v>       0.05922524       0.00000000       0.00000000 </v>
    <v>       0.00000000       0.10440146       0.00000000 </v>
    <v>       0.00000000       0.00000000       0.06184641 </v>
   </varray>
  </crystal>
  <varray name="positions" >
   <v>       0.78004631       0.14529695       0.12058499 </v>
   <v>       0.81461426       0.14529695       0.31135294 </v>
   <v>       0.26276233       0.64529695       0.02520102 </v>
   <v>       0.29733029       0.64529695       0.21596897 </v>
   <v>       0.43519032       0.14529695       0.05699568 </v>
   <v>       0.46975828       0.14529695       0.24776362 </v>
   <v>       0.95247430       0.64529695       0.15237965 </v>
   <v>       0.98704226       0.64529695       0.34314760 </v>
   <v>       0.12490229       0.14529695       0.18417431 </v>
   <v>       0.15947025       0.14529695       0.37494226 </v>
   <v>       0.64218627       0.64529695       0.27955828 </v>
   <v>       0.90758278       0.01319395       0.09538397 </v>
   <v>       0.39029880       0.51319395       0.00000000 </v>
   <v>       0.42486675       0.51319395       0.19076795 </v>
   <v>       0.45943471       0.51319395       0.38153589 </v>
   <v>       0.56272679       0.01319395       0.03179466 </v>
   <v>       0.59729475       0.01319395       0.22256261 </v>
   <v>       0.08001077       0.51319395       0.12717863 </v>
   <v>       0.11457873       0.51319395       0.31794658 </v>
   <v>       0.25243876       0.01319395       0.15897329 </v>
   <v>       0.28700672       0.01319395       0.34974124 </v>
   <v>       0.73515478       0.51319395       0.06358932 </v>
   <v>       0.76972274       0.51319395       0.25435726 </v>
   <v>       0.90758278       0.27739995       0.09538397 </v>
   <v>       0.94215073       0.27739995       0.28615192 </v>
   <v>       0.39029880       0.77739995       0.00000000 </v>
   <v>       0.42486675       0.77739995       0.19076795 </v>
   <v>       0.45943471       0.77739995       0.38153589 </v>
   <v>       0.56272679       0.27739995       0.03179466 </v>
   <v>       0.59729475       0.27739995       0.22256261 </v>
   <v>       0.08001077       0.77739995       0.12717863 </v>
   <v>       0.11457873       0.77739995       0.31794658 </v>
   <v>       0.25243876       0.27739995       0.15897329 </v>
   <v>       0.28700672       0.27739995       0.34974124 </v>
   <v>       0.73515478       0.77739995       0.06358932 </v>
   <v>       0.76972274       0.77739995       0.25435726 </v>
   <v>       0.02602916       0.14529695       0.37317765 </v>
   <v>       0.99146121       0.14529695       0.18240970 </v>
   <v>       0.47417723       0.64529695       0.08702573 </v>
   <v>       0.50874518       0.64529695       0.27779368 </v>
   <v>       0.64660522       0.14529695       0.11882039 </v>
   <v>       0.68117318       0.14529695       0.30958834 </v>
   <v>       0.12932124       0.64529695       0.02343641 </v>
   <v>       0.16388920       0.64529695       0.21420436 </v>
   <v>       0.30174923       0.14529695       0.05523107 </v>
   <v>       0.33631719       0.14529695       0.24599902 </v>
   <v>       0.81903321       0.64529695       0.15061505 </v>
   <v>       0.85360117       0.64529695       0.34138299 </v>
   <v>       0.79449310       0.31351195       0.02373179 </v>
   <v>       0.82906105       0.31351195       0.21449973 </v>
   <v>       0.31177708       0.81351195       0.11911576 </v>
   <v>       0.34634503       0.81351195       0.30988371 </v>
   <v>       0.48420507       0.31351195       0.15091042 </v>
   <v>       0.51877303       0.31351195       0.34167837 </v>
   <v>       0.00148905       0.81351195       0.24629439 </v>
   <v>       0.96692109       0.81351195       0.05552644 </v>
   <v>       0.13934908       0.31351195       0.08732110 </v>
   <v>       0.17391704       0.31351195       0.27808905 </v>
   <v>       0.65663306       0.81351195       0.18270508 </v>
   <v>       0.69120102       0.81351195       0.37347302 </v>
   <v>       0.31177708       0.47708195       0.11911576 </v>
   <v>       0.34634503       0.47708195       0.30988371 </v>
   <v>       0.79449310       0.97708195       0.02373179 </v>
   <v>       0.82906105       0.97708195       0.21449973 </v>
   <v>       0.00148905       0.47708195       0.24629439 </v>
   <v>       0.96692109       0.47708195       0.05552644 </v>
   <v>       0.48420507       0.97708195       0.15091042 </v>
   <v>       0.51877303       0.97708195       0.34167837 </v>
   <v>       0.65663306       0.47708195       0.18270508 </v>
   <v>       0.69120102       0.47708195       0.37347302 </v>
   <v>       0.13934908       0.97708195       0.08732110 </v>
   <v>       0.17391704       0.97708195       0.27808905 </v>
  </varray>
 </structure>
 <calculation>
  <scstep>
   <time name="dav">    2.50    2.51</time>
   <time name="total">    2.56    2.57</time>
   <energy>
    <i name="alphaZ">   1422.52235994 </i>
    <i name="ewald">  99849.50671224 </i>
    <i name="hartreedc">-220723.24341571 </i>
    <i name="XCdc">   3638.07071745 </i>
    <i name="pawpsdc"> 112729.53333415 </i>
    <i name="pawaedc">-117641.51188735 </i>
    <i name="eentropy">     -0.52138110 </i>
    <i name="bandstr">  -6662.12129872 </i>
    <i name="atom"> 136002.60505376 </i>
    <i name="e_fr_energy">   8614.84019466 </i>
    <i name="e_wo_entrp">   8615.36157575 </i>
    <i name="e_0_energy">   8615.10088521 </i>
   </energy>
  </scstep>
  <scstep>
   <time name="dav">    2.22    2.22</time>
   <time name="total">    2.22    2.23</time>
   <energy>
    <i name="e_fr_energy">    488.93695202 </i>
    <i name="e_wo_entrp">    489.89182878 </i>
    <i name="e_0_energy">    489.41439040 </i>
   </energy>
  </scstep>
  <scstep>
   <time name="dav">    2.42    2.43</time>
   <time name="total">    2.43    2.44</time>
   <energy>
    <i name="e_fr_energy">   -343.80022938 </i>
    <i name="e_wo_entrp">   -342.39072223 </i>
    <i name="e_0_energy">   -343.09547580 </i>
   </energy>
  </scstep>
  <scstep>
   <time name="dav">    2.41    2.42</time>
   <time name="total">    2.41    2.42</time>
   <energy>
    <i name="e_fr_energy">   -394.96044028 </i>
    <i name="e_wo_entrp">   -393.48440210 </i>
    <i name="e_0_energy">   -394.22242119 </i>
   </energy>
  </scstep>
  <scstep>
   <time name="dav">    2.57    2.57</time>
   <time name="total">    2.62    2.63</time>
   <energy>
    <i name="e_fr_energy">   -396.67148903 </i>
    <i name="e_wo_entrp">   -395.19302877 </i>
    <i name="e_0_energy">   -395.93225890 </i>
   </energy>
  </scstep>
  <scstep>
   <time name="dav">    2.42    2.43</time>
   <time name="total">    2.54    2.55</time>
   <energy>
    <i name="e_fr_energy">   -511.89859834 </i>
    <i name="e_wo_entrp">   -510.99999967 </i>
    <i name="e_0_energy">   -511.44929900 </i>
   </energy>
  </scstep>
  <scstep>
   <time name="dav">    2.54    2.55</time>
   <time name="total">    2.66    2.66</time>
   <energy>
    <i name="e_fr_energy">   -376.01463845 </i>
    <i name="e_wo_entrp">   -374.69460625 </i>
    <i name="e_0_energy">   -375.35462235 </i>
   </energy>
  </scstep>
  <scstep>
   <time name="dav">    2.90    2.90</time>
   <time name="total">    3.01    3.02</time>
   <energy>
    <i name="e_fr_energy">   -408.96079679 </i>
    <i name="e_wo_entrp">   -407.59016654 </i>
    <i name="e_0_energy">   -408.27548167 </i>
   </energy>
  </scstep>
  <scstep>
   <time name="dav">    2.69    2.70</time>
   <time name="total">    2.80    2.81</time>
   <energy>
    <i name="e_fr_energy">   -371.90887805 </i>
    <i name="e_wo_entrp">   -370.63273229 </i>
    <i name="e_0_energy">   -371.27080517 </i>
   </energy>
  </scstep>
  <scstep>
   <time name="dav">    2.80    2.81</time>
   <time name="total">    2.92    2.92</time>
   <energy>
    <i name="e_fr_energy">   -352.57496254 </i>
    <i name="e_wo_entrp">   -351.02183046 </i>
    <i name="e_0_energy">   -351.79839650 </i>
   </energy>
  </scstep>
  <scstep>
   <time name="dav">    2.81    2.82</time>
   <time name="total">    2.92    2.93</time>
   <energy>
    <i name="e_fr_energy">   -360.80935963 </i>
    <i name="e_wo_entrp">   -359.31036478 </i>
    <i name="e_0_energy">   -360.05986221 </i>
   </energy>
  </scstep>
  <scstep>
   <time name="dav">    2.77    2.78</time>
   <time name="total">    2.88    2.89</time>
   <energy>
    <i name="e_fr_energy">   -361.21556964 </i>
    <i name="e_wo_entrp">   -359.74463260 </i>
    <i name="e_0_energy">   -360.48010112 </i>
   </energy>
  </scstep>
  <scstep>
   <time name="dav">    2.77    2.78</time>
   <time name="total">    2.88    2.88</time>
   <energy>
    <i name="e_fr_energy">   -354.30516585 </i>
    <i name="e_wo_entrp">   -353.17089758 </i>
    <i name="e_0_energy">   -353.73803172 </i>
   </energy>
  </scstep>
  <scstep>
   <time name="dav">    2.77    2.77</time>
   <time name="total">    2.87    2.88</time>
   <energy>
    <i name="e_fr_energy">   -351.29980147 </i>
    <i name="e_wo_entrp">   -350.19357446 </i>
    <i name="e_0_energy">   -350.74668797 </i>
   </energy>
  </scstep>
  <scstep>
   <time name="dav">    2.77    2.77</time>
   <time name="total">    2.87    2.88</time>
   <energy>
    <i name="e_fr_energy">   -349.25793113 </i>
    <i name="e_wo_entrp">   -348.15007675 </i>
    <i name="e_0_energy">   -348.70400394 </i>
   </energy>
  </scstep>
  <scstep>
   <time name="dav">    2.64    2.65</time>
   <time name="total">    2.75    2.76</time>
   <energy>
    <i name="e_fr_energy">   -345.24589175 </i>
    <i name="e_wo_entrp">   -344.15405304 </i>
    <i name="e_0_energy">   -344.69997239 </i>
   </energy>
  </scstep>
  <scstep>
   <time name="dav">    2.75    2.76</time>
   <time name="total">    2.86    2.87</time>
   <energy>
    <i name="e_fr_energy">   -344.38452461 </i>
    <i name="e_wo_entrp">   -343.19137377 </i>
    <i name="e_0_energy">   -343.78794919 </i>
   </energy>
  </scstep>
  <scstep>
   <time name="dav">    2.74    2.75</time>
   <time name="total">    2.85    2.85</time>
   <energy>
    <i name="e_fr_energy">   -343.37469382 </i>
    <i name="e_wo_entrp">   -342.20038250 </i>
    <i name="e_0_energy">   -342.78753816 </i>
   </energy>
  </scstep>
  <scstep>
   <time name="dav">    2.78    2.79</time>
   <time name="total">    2.89    2.89</time>
   <energy>
    <i name="e_fr_energy">   -342.99774652 </i>
    <i name="e_wo_entrp">   -341.75990909 </i>
    <i name="e_0_energy">   -342.37882780 </i>
   </energy>
  </scstep>
  <scstep>
   <time name="dav">    2.74    2.75</time>
   <time name="total">    2.85    2.86</time>
   <energy>
    <i name="e_fr_energy">   -342.86261497 </i>
    <i name="e_wo_entrp">   -341.63602976 </i>
    <i name="e_0_energy">   -342.24932237 </i>
   </energy>
  </scstep>
  <scstep>
   <time name="dav">    2.73    2.74</time>
   <time name="total">    2.84    2.85</time>
   <energy>
    <i name="e_fr_energy">   -342.82929102 </i>
    <i name="e_wo_entrp">   -341.60043947 </i>
    <i name="e_0_energy">   -342.21486525 </i>
   </energy>
  </scstep>
  <scstep>
   <time name="dav">    2.51    2.51</time>
   <time name="total">    2.61    2.62</time>
   <energy>
    <i name="e_fr_energy">   -342.72779557 </i>
    <i name="e_wo_entrp">   -341.50982106 </i>
    <i name="e_0_energy">   -342.11880831 </i>
   </energy>
  </scstep>
  <scstep>
   <time name="dav">    2.71    2.71</time>
   <time name="total">    2.81    2.82</time>
   <energy>
    <i name="e_fr_energy">   -342.72670583 </i>
    <i name="e_wo_entrp">   -341.44337694 </i>
    <i name="e_0_energy">   -342.08504139 </i>
   </energy>
  </scstep>
  <scstep>
   <time name="dav">    2.75    2.75</time>
   <time name="total">    2.86    2.86</time>
   <energy>
    <i name="e_fr_energy">   -342.62751092 </i>
    <i name="e_wo_entrp">   -341.33598527 </i>
    <i name="e_0_energy">   -341.98174810 </i>
   </energy>
  </scstep>
  <scstep>
   <time name="dav">    2.69    2.70</time>
   <time name="total">    2.80    2.81</time>
   <energy>
    <i name="e_fr_energy">   -342.64159140 </i>
    <i name="e_wo_entrp">   -341.36664192 </i>
    <i name="e_0_energy">   -342.00411666 </i>
   </energy>
  </scstep>
  <scstep>
   <time name="dav">    2.67    2.68</time>
   <time name="total">    2.78    2.79</time>
   <energy>
    <i name="e_fr_energy">   -342.58094770 </i>
    <i name="e_wo_entrp">   -341.27043321 </i>
    <i name="e_0_energy">   -341.92569046 </i>
   </energy>
  </scstep>
  <scstep>
   <time name="dav">    2.71    2.71</time>
   <time name="total">    2.81    2.82</time>
   <energy>
    <i name="e_fr_energy">   -342.57100174 </i>
    <i name="e_wo_entrp">   -341.25824430 </i>
    <i name="e_0_energy">   -341.91462302 </i>
   </energy>
  </scstep>
  <scstep>
   <time name="dav">    2.64    2.64</time>
   <time name="total">    2.75    2.75</time>
   <energy>
    <i name="e_fr_energy">   -342.55695807 </i>
    <i name="e_wo_entrp">   -341.26150008 </i>
    <i name="e_0_energy">   -341.90922907 </i>
   </energy>
  </scstep>
  <scstep>
   <time name="dav">    2.65    2.66</time>
   <time name="total">    2.76    2.77</time>
   <energy>
    <i name="e_fr_energy">   -342.55758458 </i>
    <i name="e_wo_entrp">   -341.25469354 </i>
    <i name="e_0_energy">   -341.90613906 </i>
   </energy>
  </scstep>
  <scstep>
   <time name="dav">    2.73    2.74</time>
   <time name="total">    2.84    2.85</time>
   <energy>
    <i name="e_fr_energy">   -342.54663677 </i>
    <i name="e_wo_entrp">   -341.25229548 </i>
    <i name="e_0_energy">   -341.89946612 </i>
   </energy>
  </scstep>
  <scstep>
   <time name="dav">    2.72    2.73</time>
   <time name="total">    2.83    2.84</time>
   <energy>
    <i name="e_fr_energy">   -342.54623064 </i>
    <i name="e_wo_entrp">   -341.25670089 </i>
    <i name="e_0_energy">   -341.90146577 </i>
   </energy>
  </scstep>
  <scstep>
   <time name="dav">    2.67    2.67</time>
   <time name="total">    2.78    2.78</time>
   <energy>
    <i name="e_fr_energy">   -342.54677677 </i>
    <i name="e_wo_entrp">   -341.25784537 </i>
    <i name="e_0_energy">   -341.90231107 </i>
   </energy>
  </scstep>
  <scstep>
   <time name="dav">    2.64    2.65</time>
   <time name="total">    2.75    2.76</time>
   <energy>
    <i name="e_fr_energy">   -342.54188984 </i>
    <i name="e_wo_entrp">   -341.25860110 </i>
    <i name="e_0_energy">   -341.90024547 </i>
   </energy>
  </scstep>
  <scstep>
   <time name="dav">    2.62    2.63</time>
   <time name="total">    2.73    2.74</time>
   <energy>
    <i name="e_fr_energy">   -342.54292185 </i>
    <i name="e_wo_entrp">   -341.26104806 </i>
    <i name="e_0_energy">   -341.90198495 </i>
   </energy>
  </scstep>
  <scstep>
   <time name="dav">    2.49    2.50</time>
   <time name="total">    2.60    2.61</time>
   <energy>
    <i name="e_fr_energy">   -342.54152493 </i>
    <i name="e_wo_entrp">   -341.26209917 </i>
    <i name="e_0_energy">   -341.90181205 </i>
   </energy>
  </scstep>
  <scstep>
   <time name="dav">    2.30    2.30</time>
   <time name="total">    2.41    2.41</time>
   <energy>
    <i name="e_fr_energy">   -342.54183133 </i>
    <i name="e_wo_entrp">   -341.26498184 </i>
    <i name="e_0_energy">   -341.90340658 </i>
   </energy>
  </scstep>
  <scstep>
   <time name="dav">    2.03    2.04</time>
   <time name="total">    2.14    2.15</time>
   <energy>
    <i name="e_fr_energy">   -342.54202498 </i>
    <i name="e_wo_entrp">   -341.26362755 </i>
    <i name="e_0_energy">   -341.90282626 </i>
   </energy>
  </scstep>
  <scstep>
   <time name="dav">    1.80    1.80</time>
   <time name="total">    1.91    1.91</time>
   <energy>
    <i name="e_fr_energy">   -342.54214477 </i>
    <i name="e_wo_entrp">   -341.26403307 </i>
    <i name="e_0_energy">   -341.90308892 </i>
   </energy>
  </scstep>
  <scstep>
   <time name="dav">    1.66    1.67</time>
   <time name="total">    1.77    1.78</time>
   <energy>
    <i name="e_fr_energy">   -342.54267188 </i>
    <i name="e_wo_entrp">   -341.26361554 </i>
    <i name="e_0_energy">   -341.90314371 </i>
   </energy>
  </scstep>
  <scstep>
   <time name="dav">    1.65    1.65</time>
   <time name="total">    1.76    1.77</time>
   <energy>
    <i name="e_fr_energy">   -342.54301292 </i>
    <i name="e_wo_entrp">   -341.26459513 </i>
    <i name="e_0_energy">   -341.90380402 </i>
   </energy>
  </scstep>
  <scstep>
   <time name="dav">    1.65    1.65</time>
   <time name="total">    1.76    1.76</time>
   <energy>
    <i name="e_fr_energy">   -342.54340508 </i>
    <i name="e_wo_entrp">   -341.26513288 </i>
    <i name="e_0_energy">   -341.90426898 </i>
   </energy>
  </scstep>
  <scstep>
   <time name="dav">    1.55    1.56</time>
   <time name="total">    1.67    1.67</time>
   <energy>
    <i name="e_fr_energy">   -342.54375180 </i>
    <i name="e_wo_entrp">   -341.26625013 </i>
    <i name="e_0_energy">   -341.90500097 </i>
   </energy>
  </scstep>
  <scstep>
   <time name="dav">    1.68    1.68</time>
   <time name="total">    1.79    1.79</time>
   <energy>
    <i name="e_fr_energy">   -342.54429658 </i>
    <i name="e_wo_entrp">   -341.26600672 </i>
    <i name="e_0_energy">   -341.90515165 </i>
   </energy>
  </scstep>
  <scstep>
   <time name="dav">    1.55    1.56</time>
   <time name="total">    1.67    1.67</time>
   <energy>
    <i name="e_fr_energy">   -342.54456463 </i>
    <i name="e_wo_entrp">   -341.26598099 </i>
    <i name="e_0_energy">   -341.90527281 </i>
   </energy>
  </scstep>
  <scstep>
   <time name="dav">    1.78    1.79</time>
   <time name="total">    1.90    1.90</time>
   <energy>
    <i name="e_fr_energy">   -342.54519876 </i>
    <i name="e_wo_entrp">   -341.26642472 </i>
    <i name="e_0_energy">   -341.90581174 </i>
   </energy>
  </scstep>
  <scstep>
   <time name="dav">    1.57    1.58</time>
   <time name="total">    1.69    1.69</time>
   <energy>
    <i name="e_fr_energy">   -342.54538021 </i>
    <i name="e_wo_entrp">   -341.26679787 </i>
    <i name="e_0_energy">   -341.90608904 </i>
   </energy>
  </scstep>
  <scstep>
   <time name="dav">    1.59    1.60</time>
   <time name="total">    1.71    1.71</time>
   <energy>
    <i name="e_fr_energy">   -342.54558542 </i>
    <i name="e_wo_entrp">   -341.26691226 </i>
    <i name="e_0_energy">   -341.90624884 </i>
   </energy>
  </scstep>
  <scstep>
   <time name="dav">    1.55    1.55</time>
   <time name="total">    1.60    1.61</time>
   <energy>
    <i name="alphaZ">   1422.52235994 </i>
    <i name="ewald">  99849.50671224 </i>
    <i name="hartreedc">-220073.42226402 </i>
    <i name="XCdc">   3610.05173256 </i>
    <i name="pawpsdc"> 128506.41576008 </i>
    <i name="pawaedc">-133473.98250943 </i>
    <i name="eentropy">     -1.27882763 </i>
    <i name="bandstr"> -16184.96369209 </i>
    <i name="atom"> 136002.60505376 </i>
    <i name="e_fr_energy">   -342.54567459 </i>
    <i name="e_wo_entrp">   -341.26684696 </i>
    <i name="e_0_energy">   -341.90626077 </i>
   </energy>
  </scstep>
  <structure>
   <crystal>
    <varray name="basis" >
     <v>      16.88469405       0.00000000       0.00000000 </v>
     <v>       0.00000000       9.57841000       0.00000000 </v>
     <v>       0.00000000       0.00000000      16.16908712 </v>
    </varray>
    <i name="volume">   2615.00256803 </i>
    <varray name="rec_basis" >
     <v>       0.05922524       0.00000000       0.00000000 </v>
     <v>       0.00000000       0.10440146       0.00000000 </v>
     <v>       0.00000000       0.00000000       0.06184641 </v>
    </varray>
   </crystal>
   <varray name="positions" >
    <v>       0.78004631       0.14529695       0.12058499 </v>
    <v>       0.81461426       0.14529695       0.31135294 </v>
    <v>       0.26276233       0.64529695       0.02520102 </v>
    <v>       0.29733029       0.64529695       0.21596897 </v>
    <v>       0.43519032       0.14529695       0.05699568 </v>
    <v>       0.46975828       0.14529695       0.24776362 </v>
    <v>       0.95247430       0.64529695       0.15237965 </v>
    <v>       0.98704226       0.64529695       0.34314760 </v>
    <v>       0.12490229       0.14529695       0.18417431 </v>
    <v>       0.15947025       0.14529695       0.37494226 </v>
    <v>       0.64218627       0.64529695       0.27955828 </v>
    <v>       0.90758278       0.01319395       0.09538397 </v>
    <v>       0.39029880       0.51319395       0.00000000 </v>
    <v>       0.42486675       0.51319395       0.19076795 </v>
    <v>       0.45943471       0.51319395       0.38153589 </v>
    <v>       0.56272679       0.01319395       0.03179466 </v>
    <v>       0.59729475       0.01319395       0.22256261 </v>
    <v>       0.08001077       0.51319395       0.12717863 </v>
    <v>       0.11457873       0.51319395       0.31794658 </v>
    <v>       0.25243876       0.01319395       0.15897329 </v>
    <v>       0.28700672       0.01319395       0.34974124 </v>
    <v>       0.73515478       0.51319395       0.06358932 </v>
    <v>       0.76972274       0.51319395       0.25435726 </v>
    <v>       0.90758278       0.27739995       0.09538397 </v>
    <v>       0.94215073       0.27739995       0.28615192 </v>
    <v>       0.39029880       0.77739995       0.00000000 </v>
    <v>       0.42486675       0.77739995       0.19076795 </v>
    <v>       0.45943471       0.77739995       0.38153589 </v>
    <v>       0.56272679       0.27739995       0.03179466 </v>
    <v>       0.59729475       0.27739995       0.22256261 </v>
    <v>       0.08001077       0.77739995       0.12717863 </v>
    <v>       0.11457873       0.77739995       0.31794658 </v>
    <v>       0.25243876       0.27739995       0.15897329 </v>
    <v>       0.28700672       0.27739995       0.34974124 </v>
    <v>       0.73515478       0.77739995       0.06358932 </v>
    <v>       0.76972274       0.77739995       0.25435726 </v>
    <v>       0.02602916       0.14529695       0.37317765 </v>
    <v>       0.99146121       0.14529695       0.18240970 </v>
    <v>       0.47417723       0.64529695       0.08702573 </v>
    <v>       0.50874518       0.64529695       0.27779368 </v>
    <v>       0.64660522       0.14529695       0.11882039 </v>
    <v>       0.68117318       0.14529695       0.30958834 </v>
    <v>       0.12932124       0.64529695       0.02343641 </v>
    <v>       0.16388920       0.64529695       0.21420436 </v>
    <v>       0.30174923       0.14529695       0.05523107 </v>
    <v>       0.33631719       0.14529695       0.24599902 </v>
    <v>       0.81903321       0.64529695       0.15061505 </v>
    <v>       0.85360117       0.64529695       0.34138299 </v>
    <v>       0.79449310       0.31351195       0.02373179 </v>
    <v>       0.82906105       0.31351195       0.21449973 </v>
    <v>       0.31177708       0.81351195       0.11911576 </v>
    <v>       0.34634503       0.81351195       0.30988371 </v>
    <v>       0.48420507       0.31351195       0.15091042 </v>
    <v>       0.51877303       0.31351195       0.34167837 </v>
    <v>       0.00148905       0.81351195       0.24629439 </v>
    <v>       0.96692109       0.81351195       0.05552644 </v>
    <v>       0.13934908       0.31351195       0.08732110 </v>
    <v>       0.17391704       0.31351195       0.27808905 </v>
    <v>       0.65663306       0.81351195       0.18270508 </v>
    <v>       0.69120102       0.81351195       0.37347302 </v>
    <v>       0.31177708       0.47708195       0.11911576 </v>
    <v>       0.34634503       0.47708195       0.30988371 </v>
    <v>       0.79449310       0.97708195       0.02373179 </v>
    <v>       0.82906105       0.97708195       0.21449973 </v>
    <v>       0.00148905       0.47708195       0.24629439 </v>
    <v>       0.96692109       0.47708195       0.05552644 </v>
    <v>       0.48420507       0.97708195       0.15091042 </v>
    <v>       0.51877303       0.97708195       0.34167837 </v>
    <v>       0.65663306       0.47708195       0.18270508 </v>
    <v>       0.69120102       0.47708195       0.37347302 </v>
    <v>       0.13934908       0.97708195       0.08732110 </v>
    <v>       0.17391704       0.97708195       0.27808905 </v>
   </varray>
  </structure>
  <varray name="forces" >
   <v>       0.34004448      -0.29882822      -0.25576605 </v>
   <v>      -0.92830417      -0.08405724      -1.64805509 </v>
   <v>      -0.23299442       0.00349018       1.07191234 </v>
   <v>      -0.28935333       0.00291355       0.22323885 </v>
   <v>      -0.37743405       0.00630924       0.85934460 </v>
   <v>      -0.16610320       0.00693270       0.18649224 </v>
   <v>       0.01011845       0.04812581       0.09780972 </v>
   <v>      -0.74884400       0.05899184      -1.85836839 </v>
   <v>      -0.26142143       0.10040522      -0.32182624 </v>
   <v>      -0.95784067       0.09684268      -1.48626227 </v>
   <v>       0.05184544      -0.01120582       0.48614308 </v>
   <v>      -0.31124500      -0.84593217       0.63435980 </v>
   <v>       0.04038738       0.76060009       1.82977074 </v>
   <v>      -0.08506351      -0.13242287      -0.05925308 </v>
   <v>      -0.19525839      -0.42488654      -2.02100953 </v>
   <v>      -0.29260952       0.64576973       1.61238744 </v>
   <v>       0.18237234      -0.05212932       0.19914102 </v>
   <v>       0.25580437      -0.47888852      -0.25937397 </v>
   <v>      -0.15988085      -0.11246709      -1.37320966 </v>
   <v>       0.09282230      -0.19422627      -0.19305762 </v>
   <v>      -0.18116478      -0.23213210      -1.52270131 </v>
   <v>       0.39917156      -0.36748443       1.20978127 </v>
   <v>       0.10229589      -0.14017931       0.47375517 </v>
   <v>      -0.09166883       0.69179853       0.35765567 </v>
   <v>       0.94491675      -0.76377776      -0.46816222 </v>
   <v>       0.04828176      -0.76714144       1.84082303 </v>
   <v>      -0.06958665       0.13409696      -0.06530216 </v>
   <v>      -0.19517666       0.41626738      -2.03055206 </v>
   <v>      -0.30152490      -0.64099866       1.62407484 </v>
   <v>       0.21288525       0.04355458       0.15652724 </v>
   <v>       0.14683406       0.35863632      -0.10331423 </v>
   <v>      -0.22991259       0.13044848      -1.44751257 </v>
   <v>       0.08710309       0.19518416      -0.21143975 </v>
   <v>      -0.14058572       0.22598144      -1.50550155 </v>
   <v>       0.45832512       0.40901285       1.15553682 </v>
   <v>       0.05372679       0.28677726       0.40809305 </v>
   <v>      -0.35266220       0.80325288       0.15805617 </v>
   <v>      -0.49592147       0.19467041      -0.84756760 </v>
   <v>      -0.63164855       0.00609602      -1.63870545 </v>
   <v>      -0.02106243       0.01587973       1.19033889 </v>
   <v>      -0.46932572       0.00928487      -0.92121269 </v>
   <v>       0.19312327      -0.09812980       0.40278811 </v>
   <v>       1.29744215       0.01037993       0.17745613 </v>
   <v>       0.11685010      -0.03907898       1.09674845 </v>
   <v>       1.33763953       0.01209857      -0.04461333 </v>
   <v>       0.06320143       0.01427341       1.02030131 </v>
   <v>      -0.72432162       0.00585187      -0.74055286 </v>
   <v>      -0.19663572       0.04591948       0.00512974 </v>
   <v>       0.04520277       0.59406476       0.44631903 </v>
   <v>       0.38956059      -0.61812662       1.23170392 </v>
   <v>      -0.18338572      -0.15179224      -1.08995944 </v>
   <v>       0.44739501       0.12335862       0.81851138 </v>
   <v>       0.03432880      -0.26582676      -0.92330664 </v>
   <v>       0.00994588      -0.19823315       0.06964764 </v>
   <v>       0.17260316      -0.39676154       0.38072138 </v>
   <v>      -0.05657365       0.64657880       0.51122823 </v>
   <v>      -0.11316332       0.03351273       0.59031094 </v>
   <v>       0.05964583      -0.01495410       1.00497492 </v>
   <v>       0.60924645      -0.20845547      -0.25793911 </v>
   <v>       0.20833180      -0.92936382      -1.28847332 </v>
   <v>      -0.19452846       0.16740261      -1.08258390 </v>
   <v>       0.44304143      -0.10317641       0.81172236 </v>
   <v>       0.03676635      -0.61819654       0.31050757 </v>
   <v>      -0.04780495       0.90142834       0.70610145 </v>
   <v>       0.08499412       0.12454938       0.88567338 </v>
   <v>      -0.01878512      -0.58981764       0.42380047 </v>
   <v>       0.02719464       0.24417992      -0.93815103 </v>
   <v>       0.01926477       0.17638262       0.05255261 </v>
   <v>       0.53490734       0.23667654      -0.32689036 </v>
   <v>       0.20988310       0.91628010      -1.30779049 </v>
   <v>      -0.09977549      -0.07333257       0.52691343 </v>
   <v>       0.05406350      -0.05225717       0.99005953 </v>
  </varray>
  <varray name="stress" >
   <v>     -26.44971118       0.86057514      -5.77300667 </v>
   <v>       0.86057524     -26.20270522       1.09293252 </v>
   <v>      -5.77300700       1.09293268     -38.53291122 </v>
  </varray>
  <energy>
   <i name="e_fr_energy">   -342.54567459 </i>
   <i name="e_wo_entrp">   -341.26684696 </i>
   <i name="e_0_energy">   -341.90626077 </i>
  </energy>
  <time name="totalsc">  122.21  122.57</time>
  <eigenvalues>
   <array>
    <dimension dim="1">band</dimension>
    <dimension dim="2">kpoint</dimension>
    <dimension dim="3">spin</dimension>
    <field>eigene</field>
    <field>occ</field>
    <set>
     <set comment="spin 1">
      <set comment="kpoint 1">
       <r>  -64.4672    1.0000 </r>
       <r>  -64.4608    1.0000 </r>
       <r>  -64.4302    1.0000 </r>
       <r>  -64.4215    1.0000 </r>
       <r>  -64.4132    1.0000 </r>
       <r>  -64.4119    1.0000 </r>
       <r>  -64.4002    1.0000 </r>
       <r>  -64.3923    1.0000 </r>
       <r>  -64.3891    1.0000 </r>
       <r>  -64.3654    1.0000 </r>
       <r>  -64.3640    1.0000 </r>
       <r>  -64.3555    1.0000 </r>
       <r>  -64.3525    1.0000 </r>
       <r>  -64.3460    1.0000 </r>
       <r>  -64.3362    1.0000 </r>
       <r>  -64.3311    1.0000 </r>
       <r>  -64.3306    1.0000 </r>
       <r>  -64.3270    1.0000 </r>
       <r>  -64.3179    1.0000 </r>
       <r>  -64.3096    1.0000 </r>
       <r>  -64.3075    1.0000 </r>
       <r>  -64.3060    1.0000 </r>
       <r>  -64.3008    1.0000 </r>
       <r>  -64.2961    1.0000 </r>
       <r>  -64.2939    1.0000 </r>
       <r>  -64.2875    1.0000 </r>
       <r>  -64.2860    1.0000 </r>
       <r>  -64.2844    1.0000 </r>
       <r>  -64.2738    1.0000 </r>
       <r>  -64.2670    1.0000 </r>
       <r>  -64.2596    1.0000 </r>
       <r>  -64.2566    1.0000 </r>
       <r>  -64.2390    1.0000 </r>
       <r>  -64.2385    1.0000 </r>
       <r>  -64.2357    1.0000 </r>
       <r>  -64.2237    1.0000 </r>
       <r>  -64.2198    1.0000 </r>
       <r>  -64.1971    1.0000 </r>
       <r>  -64.1866    1.0000 </r>
       <r>  -64.1840    1.0000 </r>
       <r>  -64.1797    1.0000 </r>
       <r>  -64.1528    1.0000 </r>
       <r>  -64.1447    1.0000 </r>
       <r>  -64.1339    1.0000 </r>
       <r>  -64.1296    1.0000 </r>
       <r>  -64.1218    1.0000 </r>
       <r>  -64.1013    1.0000 </r>
       <r>  -64.0861    1.0000 </r>
       <r>  -64.0784    1.0000 </r>
       <r>  -64.0739    1.0000 </r>
       <r>  -64.0656    1.0000 </r>
       <r>  -64.0337    1.0000 </r>
       <r>  -63.9982    1.0000 </r>
       <r>  -63.9315    1.0000 </r>
       <r>  -63.9117    1.0000 </r>
       <r>  -63.8991    1.0000 </r>
       <r>  -63.8718    1.0000 </r>
       <r>  -63.8288    1.0000 </r>
       <r>  -63.8237    1.0000 </r>
       <r>  -63.8100    1.0000 </r>
       <r>  -63.8087    1.0000 </r>
       <r>  -63.8014    1.0000 </r>
       <r>  -63.7830    1.0000 </r>
       <r>  -63.7699    1.0000 </r>
       <r>  -63.7520    1.0000 </r>
       <r>  -63.7504    1.0000 </r>
       <r>  -63.7494    1.0000 </r>
       <r>  -63.7292    1.0000 </r>
       <r>  -63.7197    1.0000 </r>
       <r>  -63.6734    1.0000 </r>
       <r>  -63.6583    1.0000 </r>
       <r>  -63.6547    1.0000 </r>
       <r>  -63.6454    1.0000 </r>
       <r>  -63.6406    1.0000 </r>
       <r>  -63.6354    1.0000 </r>
       <r>  -63.6254    1.0000 </r>
       <r>  -63.6225    1.0000 </r>
       <r>  -63.6219    1.0000 </r>
       <r>  -63.6173    1.0000 </r>
       <r>  -63.6087    1.0000 </r>
       <r>  -63.5728    1.0000 </r>
       <r>  -63.5591    1.0000 </r>
       <r>  -63.5445    1.0000 </r>
       <r>  -63.5418    1.0000 </r>
       <r>  -63.4814    1.0000 </r>
       <r>  -63.4522    1.0000 </r>
       <r>  -63.4517    1.0000 </r>
       <r>  -63.4453    1.0000 </r>
       <r>  -63.4100    1.0000 </r>
       <r>  -63.3470    1.0000 </r>
       <r>  -63.3418    1.0000 </r>
       <r>  -63.3174    1.0000 </r>
       <r>  -63.2945    1.0000 </r>
       <r>  -63.2793    1.0000 </r>
       <r>  -63.2085    1.0000 </r>
       <r>  -63.1923    1.0000 </r>
       <r>  -63.1577    1.0000 </r>
       <r>  -63.1422    1.0000 </r>
       <r>  -63.1316    1.0000 </r>
       <r>  -63.1224    1.0000 </r>
       <r>  -63.1008    1.0000 </r>
       <r>  -63.0684    1.0000 </r>
       <r>  -63.0437    1.0000 </r>
       <r>  -63.0331    1.0000 </r>
       <r>  -63.0276    1.0000 </r>
       <r>  -63.0069    1.0000 </r>
       <r>  -62.9739    1.0000 </r>
       <r>  -62.9463    1.0000 </r>
       <r>  -15.2056    1.0000 </r>
       <r>  -14.8767    1.0000 </r>
       <r>  -14.8507    1.0000 </r>
       <r>  -14.5541    1.0000 </r>
       <r>  -14.3934    1.0000 </r>
       <r>  -14.2700    1.0000 </r>
       <r>  -14.2320    1.0000 </r>
       <r>  -14.1585    1.0000 </r>
       <r>  -14.0699    1.0000 </r>
       <r>  -13.9978    1.0000 </r>
       <r>  -13.8475    1.0000 </r>
       <r>  -13.8284    1.0000 </r>
       <r>  -13.7747    1.0000 </r>
       <r>  -13.6907    1.0000 </r>
       <r>  -13.6073    1.0000 </r>
       <r>  -13.5614    1.0000 </r>
       <r>  -13.4694    1.0000 </r>
       <r>  -13.4238    1.0000 </r>
       <r>  -13.2726    1.0000 </r>
       <r>  -13.2350    1.0000 </r>
       <r>  -13.2176    1.0000 </r>
       <r>  -13.1590    1.0000 </r>
       <r>  -13.1102    1.0000 </r>
       <r>  -13.0455    1.0000 </r>
       <r>  -12.9214    1.0000 </r>
       <r>  -12.8807    1.0000 </r>
       <r>  -12.7540    1.0000 </r>
       <r>  -12.6742    1.0000 </r>
       <r>  -12.6661    1.0000 </r>
       <r>  -12.5763    1.0000 </r>
       <r>  -12.4537    1.0000 </r>
       <r>  -12.4339    1.0000 </r>
       <r>  -12.4318    1.0000 </r>
       <r>  -12.0890    1.0000 </r>
       <r>  -11.8352    1.0000 </r>
       <r>  -11.8327    1.0000 </r>
       <r>   -6.9966    1.0000 </r>
       <r>   -6.9463    1.0000 </r>
       <r>   -6.8457    1.0000 </r>
       <r>   -6.7628    1.0000 </r>
       <r>   -6.6606    1.0000 </r>
       <r>   -6.5982    1.0000 </r>
       <r>   -6.4572    1.0000 </r>
       <r>   -6.3799    1.0000 </r>
       <r>   -6.3623    1.0000 </r>
       <r>   -6.3253    1.0000 </r>
       <r>   -6.2981    1.0000 </r>
       <r>   -6.2418    1.0000 </r>
       <r>   -6.1638    1.0000 </r>
       <r>   -6.0803    1.0000 </r>
       <r>   -6.0436    1.0000 </r>
       <r>   -6.0110    1.0000 </r>
       <r>   -5.9675    1.0000 </r>
       <r>   -5.9327    1.0000 </r>
       <r>   -5.9041    1.0000 </r>
       <r>   -5.8372    1.0000 </r>
       <r>   -5.7889    1.0000 </r>
       <r>   -5.7543    1.0000 </r>
       <r>   -5.7181    1.0000 </r>
       <r>   -5.6722    1.0000 </r>
       <r>   -5.6280    1.0000 </r>
       <r>   -5.5956    1.0000 </r>
       <r>   -5.5654    1.0000 </r>
       <r>   -5.5212    1.0000 </r>
       <r>   -5.4747    1.0000 </r>
       <r>   -5.4556    1.0000 </r>
       <r>   -5.4312    1.0000 </r>
       <r>   -5.3230    1.0000 </r>
       <r>   -5.3150    1.0000 </r>
       <r>   -5.2722    1.0000 </r>
       <r>   -5.2045    1.0000 </r>
       <r>   -5.1717    1.0000 </r>
       <r>   -5.1029    1.0000 </r>
       <r>   -5.0830    1.0000 </r>
       <r>   -5.0462    1.0000 </r>
       <r>   -4.9704    1.0000 </r>
       <r>   -4.8752    1.0000 </r>
       <r>   -4.8568    1.0000 </r>
       <r>   -4.8187    1.0000 </r>
       <r>   -4.7606    1.0000 </r>
       <r>   -4.7432    1.0000 </r>
       <r>   -4.6961    1.0000 </r>
       <r>   -4.6536    1.0000 </r>
       <r>   -4.6344    1.0000 </r>
       <r>   -4.6056    1.0000 </r>
       <r>   -4.5910    1.0000 </r>
       <r>   -4.5470    1.0000 </r>
       <r>   -4.5362    1.0000 </r>
       <r>   -4.5112    1.0000 </r>
       <r>   -4.4581    1.0000 </r>
       <r>   -4.4296    1.0000 </r>
       <r>   -4.3899    1.0000 </r>
       <r>   -4.3451    1.0000 </r>
       <r>   -4.3335    1.0000 </r>
       <r>   -4.3004    1.0000 </r>
       <r>   -4.2580    1.0000 </r>
       <r>   -4.1825    1.0000 </r>
       <r>   -4.1459    1.0000 </r>
       <r>   -4.1256    1.0000 </r>
       <r>   -4.0679    1.0000 </r>
       <r>   -4.0319    1.0000 </r>
       <r>   -4.0004    1.0000 </r>
       <r>   -3.9751    1.0000 </r>
       <r>   -3.9621    1.0000 </r>
       <r>   -3.9530    1.0000 </r>
       <r>   -3.9119    1.0000 </r>
       <r>   -3.9075    1.0000 </r>
       <r>   -3.8779    1.0000 </r>
       <r>   -3.8351    1.0000 </r>
       <r>   -3.8301    1.0000 </r>
       <r>   -3.8227    1.0000 </r>
       <r>   -3.7726    1.0000 </r>
       <r>   -3.7093    1.0000 </r>
       <r>   -3.6788    1.0000 </r>
       <r>   -3.6440    1.0000 </r>
       <r>   -3.6222    1.0000 </r>
       <r>   -3.5976    1.0000 </r>
       <r>   -3.5762    1.0000 </r>
       <r>   -3.5529    1.0000 </r>
       <r>   -3.5316    1.0000 </r>
       <r>   -3.4910    1.0000 </r>
       <r>   -3.4542    1.0000 </r>
       <r>   -3.4048    1.0000 </r>
       <r>   -3.3587    1.0000 </r>
       <r>   -3.2781    1.0000 </r>
       <r>   -3.2449    1.0000 </r>
       <r>   -3.2190    1.0000 </r>
       <r>   -3.1604    1.0000 </r>
       <r>   -3.1313    1.0000 </r>
       <r>   -3.1189    1.0000 </r>
       <r>   -3.0823    1.0000 </r>
       <r>   -3.0594    1.0000 </r>
       <r>   -3.0341    1.0000 </r>
       <r>   -2.9994    1.0000 </r>
       <r>   -2.9423    1.0000 </r>
       <r>   -2.9281    1.0000 </r>
       <r>   -2.9150    1.0000 </r>
       <r>   -2.8505    1.0000 </r>
       <r>   -2.8342    1.0000 </r>
       <r>   -2.8139    1.0000 </r>
       <r>   -2.7774    1.0000 </r>
       <r>   -2.7307    1.0000 </r>
       <r>   -2.6792    1.0000 </r>
       <r>   -2.6740    1.0000 </r>
       <r>   -2.6227    1.0000 </r>
       <r>   -2.6030    1.0000 </r>
       <r>   -2.5906    1.0000 </r>
       <r>   -2.5525    1.0000 </r>
       <r>   -2.5316    1.0000 </r>
       <r>   -2.5198    1.0000 </r>
       <r>   -2.4908    1.0000 </r>
       <r>   -2.4687    1.0000 </r>
       <r>   -2.4564    1.0000 </r>
       <r>   -2.3908    1.0000 </r>
       <r>   -2.3843    1.0000 </r>
       <r>   -2.3749    1.0000 </r>
       <r>   -2.3459    1.0000 </r>
       <r>   -2.3398    1.0000 </r>
       <r>   -2.3129    1.0000 </r>
       <r>   -2.3067    1.0000 </r>
       <r>   -2.2981    1.0000 </r>
       <r>   -2.2915    1.0000 </r>
       <r>   -2.2588    1.0000 </r>
       <r>   -2.2457    1.0000 </r>
       <r>   -2.2345    1.0000 </r>
       <r>   -2.2277    1.0000 </r>
       <r>   -2.2099    1.0000 </r>
       <r>   -2.1985    1.0000 </r>
       <r>   -2.1823    1.0000 </r>
       <r>   -2.1604    1.0000 </r>
       <r>   -2.1492    1.0000 </r>
       <r>   -2.1470    1.0000 </r>
       <r>   -2.1269    1.0000 </r>
       <r>   -2.0936    1.0000 </r>
       <r>   -2.0826    1.0000 </r>
       <r>   -2.0605    1.0000 </r>
       <r>   -2.0514    1.0000 </r>
       <r>   -2.0315    1.0000 </r>
       <r>   -2.0271    1.0000 </r>
       <r>   -2.0099    1.0000 </r>
       <r>   -1.9982    1.0000 </r>
       <r>   -1.9873    1.0000 </r>
       <r>   -1.9610    1.0000 </r>
       <r>   -1.9531    1.0000 </r>
       <r>   -1.9432    1.0000 </r>
       <r>   -1.9342    1.0000 </r>
       <r>   -1.9292    1.0000 </r>
       <r>   -1.9114    1.0000 </r>
       <r>   -1.9094    1.0000 </r>
       <r>   -1.8933    1.0000 </r>
       <r>   -1.8826    1.0000 </r>
       <r>   -1.8715    1.0000 </r>
       <r>   -1.8634    1.0000 </r>
       <r>   -1.8538    1.0000 </r>
       <r>   -1.8460    1.0000 </r>
       <r>   -1.8351    1.0000 </r>
       <r>   -1.8245    1.0000 </r>
       <r>   -1.8165    1.0000 </r>
       <r>   -1.8093    1.0000 </r>
       <r>   -1.8033    1.0000 </r>
       <r>   -1.7951    1.0000 </r>
       <r>   -1.7878    1.0000 </r>
       <r>   -1.7503    1.0000 </r>
       <r>   -1.7395    1.0000 </r>
       <r>   -1.7289    1.0000 </r>
       <r>   -1.7158    1.0000 </r>
       <r>   -1.6979    1.0000 </r>
       <r>   -1.6849    1.0000 </r>
       <r>   -1.6747    1.0000 </r>
       <r>   -1.6685    1.0000 </r>
       <r>   -1.6633    1.0000 </r>
       <r>   -1.6353    1.0000 </r>
       <r>   -1.6274    1.0000 </r>
       <r>   -1.6202    1.0000 </r>
       <r>   -1.6102    1.0000 </r>
       <r>   -1.5847    1.0000 </r>
       <r>   -1.5656    1.0000 </r>
       <r>   -1.5610    1.0000 </r>
       <r>   -1.5515    1.0000 </r>
       <r>   -1.5350    1.0000 </r>
       <r>   -1.5168    1.0000 </r>
       <r>   -1.5112    1.0000 </r>
       <r>   -1.4965    1.0000 </r>
       <r>   -1.4779    1.0000 </r>
       <r>   -1.4668    1.0000 </r>
       <r>   -1.4539    1.0000 </r>
       <r>   -1.4474    1.0000 </r>
       <r>   -1.4448    1.0000 </r>
       <r>   -1.4286    1.0000 </r>
       <r>   -1.4145    1.0000 </r>
       <r>   -1.4004    1.0000 </r>
       <r>   -1.3891    1.0000 </r>
       <r>   -1.3847    1.0000 </r>
       <r>   -1.3535    1.0000 </r>
       <r>   -1.3518    1.0000 </r>
       <r>   -1.3325    1.0000 </r>
       <r>   -1.3138    1.0000 </r>
       <r>   -1.3042    1.0000 </r>
       <r>   -1.2871    1.0000 </r>
       <r>   -1.2746    1.0000 </r>
       <r>   -1.2440    1.0000 </r>
       <r>   -1.2216    1.0000 </r>
       <r>   -1.2147    1.0000 </r>
       <r>   -1.1798    1.0000 </r>
       <r>   -1.1638    1.0000 </r>
       <r>   -1.1578    1.0000 </r>
       <r>   -1.1383    1.0000 </r>
       <r>   -1.1097    1.0000 </r>
       <r>   -1.0993    1.0000 </r>
       <r>   -1.0714    1.0000 </r>
       <r>   -1.0511    1.0000 </r>
       <r>   -1.0362    1.0000 </r>
       <r>   -1.0307    1.0000 </r>
       <r>   -0.9979    1.0000 </r>
       <r>   -0.9886    1.0000 </r>
       <r>   -0.9622    1.0000 </r>
       <r>   -0.9379    1.0000 </r>
       <r>   -0.9305    1.0000 </r>
       <r>   -0.9149    1.0000 </r>
       <r>   -0.9046    1.0000 </r>
       <r>   -0.8897    1.0000 </r>
       <r>   -0.8753    1.0000 </r>
       <r>   -0.8657    1.0000 </r>
       <r>   -0.8500    1.0000 </r>
       <r>   -0.8427    1.0000 </r>
       <r>   -0.8154    0.9999 </r>
       <r>   -0.8057    0.9999 </r>
       <r>   -0.7824    0.9998 </r>
       <r>   -0.7711    0.9998 </r>
       <r>   -0.7384    0.9995 </r>
       <r>   -0.7099    0.9989 </r>
       <r>   -0.6963    0.9985 </r>
       <r>   -0.6838    0.9981 </r>
       <r>   -0.6729    0.9975 </r>
       <r>   -0.6393    0.9950 </r>
       <r>   -0.6179    0.9923 </r>
       <r>   -0.6129    0.9915 </r>
       <r>   -0.5758    0.9832 </r>
       <r>   -0.5322    0.9653 </r>
       <r>   -0.5220    0.9594 </r>
       <r>   -0.5065    0.9489 </r>
       <r>   -0.4834    0.9293 </r>
       <r>   -0.4696    0.9151 </r>
       <r>   -0.4218    0.8497 </r>
       <r>   -0.3830    0.7766 </r>
       <r>   -0.3600    0.7251 </r>
       <r>   -0.3278    0.6445 </r>
       <r>   -0.3062    0.5861 </r>
       <r>   -0.2607    0.4586 </r>
       <r>   -0.2183    0.3431 </r>
       <r>   -0.1878    0.2677 </r>
       <r>   -0.1659    0.2193 </r>
       <r>   -0.1426    0.1738 </r>
       <r>   -0.1123    0.1244 </r>
       <r>   -0.0650    0.0684 </r>
       <r>   -0.0108    0.0307 </r>
       <r>    0.0070    0.0229 </r>
       <r>    0.0307    0.0152 </r>
       <r>    0.0429    0.0122 </r>
       <r>    0.0708    0.0072 </r>
       <r>    0.1302    0.0021 </r>
       <r>    0.1729    0.0008 </r>
       <r>    0.2583    0.0001 </r>
       <r>    0.2761    0.0000 </r>
       <r>    0.2869    0.0000 </r>
       <r>    0.3203    0.0000 </r>
       <r>    0.3504    0.0000 </r>
       <r>    0.3846    0.0000 </r>
       <r>    0.4188    0.0000 </r>
       <r>    0.4318    0.0000 </r>
       <r>    0.5285    0.0000 </r>
       <r>    0.5523    0.0000 </r>
       <r>    0.5872    0.0000 </r>
       <r>    0.6342    0.0000 </r>
       <r>    0.6720    0.0000 </r>
       <r>    0.7126    0.0000 </r>
       <r>    0.7478    0.0000 </r>
       <r>    0.7808    0.0000 </r>
       <r>    0.7938    0.0000 </r>
       <r>    0.8050    0.0000 </r>
       <r>    0.8704    0.0000 </r>
       <r>    0.8816    0.0000 </r>
       <r>    0.8974    0.0000 </r>
       <r>    0.9746    0.0000 </r>
       <r>    0.9815    0.0000 </r>
       <r>    0.9996    0.0000 </r>
       <r>    1.0186    0.0000 </r>
       <r>    1.0734    0.0000 </r>
       <r>    1.4694    0.0000 </r>
       <r>    1.5403    0.0000 </r>
       <r>    1.6879    0.0000 </r>
       <r>    2.3605    0.0000 </r>
       <r>    2.5074    0.0000 </r>
       <r>    2.6342    0.0000 </r>
       <r>    2.8229    0.0000 </r>
       <r>    3.3148    0.0000 </r>
       <r>    3.3784    0.0000 </r>
       <r>    3.4975    0.0000 </r>
       <r>    3.5263    0.0000 </r>
       <r>    3.8192    0.0000 </r>
       <r>    3.9110    0.0000 </r>
       <r>    4.0098    0.0000 </r>
       <r>    4.1468    0.0000 </r>
       <r>    4.1811    0.0000 </r>
       <r>    4.1898    0.0000 </r>
       <r>    4.2269    0.0000 </r>
       <r>    4.3520    0.0000 </r>
       <r>    4.3907    0.0000 </r>
       <r>    4.5446    0.0000 </r>
       <r>    4.5688    0.0000 </r>
       <r>    4.5828    0.0000 </r>
       <r>    4.7064    0.0000 </r>
       <r>    4.7476    0.0000 </r>
       <r>    4.7846    0.0000 </r>
       <r>    4.8710    0.0000 </r>
       <r>    4.9096    0.0000 </r>
       <r>    4.9831    0.0000 </r>
       <r>    5.0230    0.0000 </r>
       <r>    5.1250    0.0000 </r>
       <r>    5.1883    0.0000 </r>
       <r>    5.2615    0.0000 </r>
       <r>    5.2821    0.0000 </r>
       <r>    5.3692    0.0000 </r>
       <r>    5.4070    0.0000 </r>
       <r>    5.4235    0.0000 </r>
       <r>    5.4513    0.0000 </r>
       <r>    5.5277    0.0000 </r>
       <r>    5.5508    0.0000 </r>
       <r>    5.5696    0.0000 </r>
       <r>    5.5958    0.0000 </r>
       <r>    5.6496    0.0000 </r>
       <r>    5.6863    0.0000 </r>
      </set>
     </set>
    </set>
   </array>
  </eigenvalues>
  <separator name="orbital magnetization" >
   <v name="MAGDIPOLOUT">      0.00000000      0.00000000      0.00000000</v>
  </separator>
  <dos>
   <i name="efermi">     -0.27543070 </i>
   <total>
    <array>
     <dimension dim="1">gridpoints</dimension>
     <dimension dim="2">spin</dimension>
     <field>energy</field>
     <field>total</field>
     <field>integrated</field>
     <set>
      <set comment="spin 1">
       <r>   -67.9749     0.0000     0.0000 </r>
       <r>   -67.7177     0.0000     0.0000 </r>
       <r>   -67.4604     0.0000     0.0000 </r>
       <r>   -67.2032     0.0000     0.0000 </r>
       <r>   -66.9460     0.0000     0.0000 </r>
       <r>   -66.6888     0.0000     0.0000 </r>
       <r>   -66.4315     0.0000     0.0000 </r>
       <r>   -66.1743     0.0000     0.0000 </r>
       <r>   -65.9171     0.0000     0.0000 </r>
       <r>   -65.6598     0.0000     0.0000 </r>
       <r>   -65.4026     0.0000     0.0000 </r>
       <r>   -65.1454     0.0000     0.0000 </r>
       <r>   -64.8881     0.0473     0.0122 </r>
       <r>   -64.6309     7.5829     1.9627 </r>
       <r>   -64.3737   107.6083    29.6427 </r>
       <r>   -64.1165   212.6107    84.3325 </r>
       <r>   -63.8592   129.9708   117.7648 </r>
       <r>   -63.6020   136.2591   152.8147 </r>
       <r>   -63.3448   106.7186   180.2659 </r>
       <r>   -63.0875    80.7865   201.0466 </r>
       <r>   -62.8303    51.6418   214.3303 </r>
       <r>   -62.5731     6.4157   215.9807 </r>
       <r>   -62.3158     0.0751   216.0000 </r>
       <r>   -62.0586     0.0001   216.0000 </r>
       <r>   -61.8014     0.0000   216.0000 </r>
       <r>   -61.5442     0.0000   216.0000 </r>
       <r>   -61.2869     0.0000   216.0000 </r>
       <r>   -61.0297     0.0000   216.0000 </r>
       <r>   -60.7725     0.0000   216.0000 </r>
       <r>   -60.5152     0.0000   216.0000 </r>
       <r>   -60.2580     0.0000   216.0000 </r>
       <r>   -60.0008     0.0000   216.0000 </r>
       <r>   -59.7436     0.0000   216.0000 </r>
       <r>   -59.4863     0.0000   216.0000 </r>
       <r>   -59.2291     0.0000   216.0000 </r>
       <r>   -58.9719     0.0000   216.0000 </r>
       <r>   -58.7146     0.0000   216.0000 </r>
       <r>   -58.4574     0.0000   216.0000 </r>
       <r>   -58.2002     0.0000   216.0000 </r>
       <r>   -57.9429     0.0000   216.0000 </r>
       <r>   -57.6857     0.0000   216.0000 </r>
       <r>   -57.4285     0.0000   216.0000 </r>
       <r>   -57.1713     0.0000   216.0000 </r>
       <r>   -56.9140     0.0000   216.0000 </r>
       <r>   -56.6568     0.0000   216.0000 </r>
       <r>   -56.3996     0.0000   216.0000 </r>
       <r>   -56.1423     0.0000   216.0000 </r>
       <r>   -55.8851     0.0000   216.0000 </r>
       <r>   -55.6279     0.0000   216.0000 </r>
       <r>   -55.3706     0.0000   216.0000 </r>
       <r>   -55.1134     0.0000   216.0000 </r>
       <r>   -54.8562     0.0000   216.0000 </r>
       <r>   -54.5990     0.0000   216.0000 </r>
       <r>   -54.3417     0.0000   216.0000 </r>
       <r>   -54.0845     0.0000   216.0000 </r>
       <r>   -53.8273     0.0000   216.0000 </r>
       <r>   -53.5700     0.0000   216.0000 </r>
       <r>   -53.3128     0.0000   216.0000 </r>
       <r>   -53.0556     0.0000   216.0000 </r>
       <r>   -52.7984     0.0000   216.0000 </r>
       <r>   -52.5411     0.0000   216.0000 </r>
       <r>   -52.2839     0.0000   216.0000 </r>
       <r>   -52.0267     0.0000   216.0000 </r>
       <r>   -51.7694     0.0000   216.0000 </r>
       <r>   -51.5122     0.0000   216.0000 </r>
       <r>   -51.2550     0.0000   216.0000 </r>
       <r>   -50.9977     0.0000   216.0000 </r>
       <r>   -50.7405     0.0000   216.0000 </r>
       <r>   -50.4833     0.0000   216.0000 </r>
       <r>   -50.2261     0.0000   216.0000 </r>
       <r>   -49.9688     0.0000   216.0000 </r>
       <r>   -49.7116     0.0000   216.0000 </r>
       <r>   -49.4544     0.0000   216.0000 </r>
       <r>   -49.1971     0.0000   216.0000 </r>
       <r>   -48.9399     0.0000   216.0000 </r>
       <r>   -48.6827     0.0000   216.0000 </r>
       <r>   -48.4255     0.0000   216.0000 </r>
       <r>   -48.1682     0.0000   216.0000 </r>
       <r>   -47.9110     0.0000   216.0000 </r>
       <r>   -47.6538     0.0000   216.0000 </r>
       <r>   -47.3965     0.0000   216.0000 </r>
       <r>   -47.1393     0.0000   216.0000 </r>
       <r>   -46.8821     0.0000   216.0000 </r>
       <r>   -46.6248     0.0000   216.0000 </r>
       <r>   -46.3676     0.0000   216.0000 </r>
       <r>   -46.1104     0.0000   216.0000 </r>
       <r>   -45.8532     0.0000   216.0000 </r>
       <r>   -45.5959     0.0000   216.0000 </r>
       <r>   -45.3387     0.0000   216.0000 </r>
       <r>   -45.0815     0.0000   216.0000 </r>
       <r>   -44.8242     0.0000   216.0000 </r>
       <r>   -44.5670     0.0000   216.0000 </r>
       <r>   -44.3098     0.0000   216.0000 </r>
       <r>   -44.0525     0.0000   216.0000 </r>
       <r>   -43.7953     0.0000   216.0000 </r>
       <r>   -43.5381     0.0000   216.0000 </r>
       <r>   -43.2809     0.0000   216.0000 </r>
       <r>   -43.0236     0.0000   216.0000 </r>
       <r>   -42.7664     0.0000   216.0000 </r>
       <r>   -42.5092     0.0000   216.0000 </r>
       <r>   -42.2519     0.0000   216.0000 </r>
       <r>   -41.9947     0.0000   216.0000 </r>
       <r>   -41.7375     0.0000   216.0000 </r>
       <r>   -41.4803     0.0000   216.0000 </r>
       <r>   -41.2230     0.0000   216.0000 </r>
       <r>   -40.9658     0.0000   216.0000 </r>
       <r>   -40.7086     0.0000   216.0000 </r>
       <r>   -40.4513     0.0000   216.0000 </r>
       <r>   -40.1941     0.0000   216.0000 </r>
       <r>   -39.9369     0.0000   216.0000 </r>
       <r>   -39.6796     0.0000   216.0000 </r>
       <r>   -39.4224     0.0000   216.0000 </r>
       <r>   -39.1652     0.0000   216.0000 </r>
       <r>   -38.9080     0.0000   216.0000 </r>
       <r>   -38.6507     0.0000   216.0000 </r>
       <r>   -38.3935     0.0000   216.0000 </r>
       <r>   -38.1363     0.0000   216.0000 </r>
       <r>   -37.8790     0.0000   216.0000 </r>
       <r>   -37.6218     0.0000   216.0000 </r>
       <r>   -37.3646     0.0000   216.0000 </r>
       <r>   -37.1073     0.0000   216.0000 </r>
       <r>   -36.8501     0.0000   216.0000 </r>
       <r>   -36.5929     0.0000   216.0000 </r>
       <r>   -36.3357     0.0000   216.0000 </r>
       <r>   -36.0784     0.0000   216.0000 </r>
       <r>   -35.8212     0.0000   216.0000 </r>
       <r>   -35.5640     0.0000   216.0000 </r>
       <r>   -35.3067     0.0000   216.0000 </r>
       <r>   -35.0495     0.0000   216.0000 </r>
       <r>   -34.7923     0.0000   216.0000 </r>
       <r>   -34.5351     0.0000   216.0000 </r>
       <r>   -34.2778     0.0000   216.0000 </r>
       <r>   -34.0206     0.0000   216.0000 </r>
       <r>   -33.7634     0.0000   216.0000 </r>
       <r>   -33.5061     0.0000   216.0000 </r>
       <r>   -33.2489     0.0000   216.0000 </r>
       <r>   -32.9917     0.0000   216.0000 </r>
       <r>   -32.7344     0.0000   216.0000 </r>
       <r>   -32.4772     0.0000   216.0000 </r>
       <r>   -32.2200     0.0000   216.0000 </r>
       <r>   -31.9628     0.0000   216.0000 </r>
       <r>   -31.7055     0.0000   216.0000 </r>
       <r>   -31.4483     0.0000   216.0000 </r>
       <r>   -31.1911     0.0000   216.0000 </r>
       <r>   -30.9338     0.0000   216.0000 </r>
       <r>   -30.6766     0.0000   216.0000 </r>
       <r>   -30.4194     0.0000   216.0000 </r>
       <r>   -30.1622     0.0000   216.0000 </r>
       <r>   -29.9049     0.0000   216.0000 </r>
       <r>   -29.6477     0.0000   216.0000 </r>
       <r>   -29.3905     0.0000   216.0000 </r>
       <r>   -29.1332     0.0000   216.0000 </r>
       <r>   -28.8760     0.0000   216.0000 </r>
       <r>   -28.6188     0.0000   216.0000 </r>
       <r>   -28.3615     0.0000   216.0000 </r>
       <r>   -28.1043     0.0000   216.0000 </r>
       <r>   -27.8471     0.0000   216.0000 </r>
       <r>   -27.5899     0.0000   216.0000 </r>
       <r>   -27.3326     0.0000   216.0000 </r>
       <r>   -27.0754     0.0000   216.0000 </r>
       <r>   -26.8182     0.0000   216.0000 </r>
       <r>   -26.5609     0.0000   216.0000 </r>
       <r>   -26.3037     0.0000   216.0000 </r>
       <r>   -26.0465     0.0000   216.0000 </r>
       <r>   -25.7892     0.0000   216.0000 </r>
       <r>   -25.5320     0.0000   216.0000 </r>
       <r>   -25.2748     0.0000   216.0000 </r>
       <r>   -25.0176     0.0000   216.0000 </r>
       <r>   -24.7603     0.0000   216.0000 </r>
       <r>   -24.5031     0.0000   216.0000 </r>
       <r>   -24.2459     0.0000   216.0000 </r>
       <r>   -23.9886     0.0000   216.0000 </r>
       <r>   -23.7314     0.0000   216.0000 </r>
       <r>   -23.4742     0.0000   216.0000 </r>
       <r>   -23.2170     0.0000   216.0000 </r>
       <r>   -22.9597     0.0000   216.0000 </r>
       <r>   -22.7025     0.0000   216.0000 </r>
       <r>   -22.4453     0.0000   216.0000 </r>
       <r>   -22.1880     0.0000   216.0000 </r>
       <r>   -21.9308     0.0000   216.0000 </r>
       <r>   -21.6736     0.0000   216.0000 </r>
       <r>   -21.4163     0.0000   216.0000 </r>
       <r>   -21.1591     0.0000   216.0000 </r>
       <r>   -20.9019     0.0000   216.0000 </r>
       <r>   -20.6447     0.0000   216.0000 </r>
       <r>   -20.3874     0.0000   216.0000 </r>
       <r>   -20.1302     0.0000   216.0000 </r>
       <r>   -19.8730     0.0000   216.0000 </r>
       <r>   -19.6157     0.0000   216.0000 </r>
       <r>   -19.3585     0.0000   216.0000 </r>
       <r>   -19.1013     0.0000   216.0000 </r>
       <r>   -18.8440     0.0000   216.0000 </r>
       <r>   -18.5868     0.0000   216.0000 </r>
       <r>   -18.3296     0.0000   216.0000 </r>
       <r>   -18.0724     0.0000   216.0000 </r>
       <r>   -17.8151     0.0000   216.0000 </r>
       <r>   -17.5579     0.0000   216.0000 </r>
       <r>   -17.3007     0.0000   216.0000 </r>
       <r>   -17.0434     0.0000   216.0000 </r>
       <r>   -16.7862     0.0000   216.0000 </r>
       <r>   -16.5290     0.0000   216.0000 </r>
       <r>   -16.2718     0.0000   216.0000 </r>
       <r>   -16.0145     0.0000   216.0000 </r>
       <r>   -15.7573     0.0004   216.0001 </r>
       <r>   -15.5001     0.1448   216.0373 </r>
       <r>   -15.2428     2.9943   216.8076 </r>
       <r>   -14.9856     7.2170   218.6640 </r>
       <r>   -14.7284    11.2404   221.5553 </r>
       <r>   -14.4711    10.6383   224.2918 </r>
       <r>   -14.2139    19.6186   229.3383 </r>
       <r>   -13.9567    24.5515   235.6537 </r>
       <r>   -13.6995    27.2242   242.6566 </r>
       <r>   -13.4422    27.9739   249.8523 </r>
       <r>   -13.1850    30.3074   257.6482 </r>
       <r>   -12.9278    29.6887   265.2850 </r>
       <r>   -12.6705    26.2327   272.0329 </r>
       <r>   -12.4133    27.3220   279.0609 </r>
       <r>   -12.1561    13.5302   282.5412 </r>
       <r>   -11.8989     9.9987   285.1132 </r>
       <r>   -11.6416     9.8643   287.6506 </r>
       <r>   -11.3844     1.3468   287.9970 </r>
       <r>   -11.1272     0.0115   288.0000 </r>
       <r>   -10.8699     0.0000   288.0000 </r>
       <r>   -10.6127     0.0000   288.0000 </r>
       <r>   -10.3555     0.0000   288.0000 </r>
       <r>   -10.0982     0.0000   288.0000 </r>
       <r>    -9.8410     0.0000   288.0000 </r>
       <r>    -9.5838     0.0000   288.0000 </r>
       <r>    -9.3266     0.0000   288.0000 </r>
       <r>    -9.0693     0.0000   288.0000 </r>
       <r>    -8.8121     0.0000   288.0000 </r>
       <r>    -8.5549     0.0000   288.0000 </r>
       <r>    -8.2976     0.0000   288.0000 </r>
       <r>    -8.0404     0.0000   288.0000 </r>
       <r>    -7.7832     0.0000   288.0000 </r>
       <r>    -7.5259     0.0009   288.0002 </r>
       <r>    -7.2687     0.3105   288.0801 </r>
       <r>    -7.0115     7.0643   289.8972 </r>
       <r>    -6.7543    20.2254   295.0998 </r>
       <r>    -6.4970    23.7466   301.2081 </r>
       <r>    -6.2398    34.8338   310.1684 </r>
       <r>    -5.9826    40.5365   320.5956 </r>
       <r>    -5.7253    46.9235   332.6657 </r>
       <r>    -5.4681    49.8903   345.4990 </r>
       <r>    -5.2109    44.9340   357.0573 </r>
       <r>    -4.9537    40.8560   367.5667 </r>
       <r>    -4.6964    48.4507   380.0296 </r>
       <r>    -4.4392    61.7485   395.9132 </r>
       <r>    -4.1820    55.1626   410.1026 </r>
       <r>    -3.9247    64.1723   426.6096 </r>
       <r>    -3.6675    69.8594   444.5795 </r>
       <r>    -3.4103    59.4220   459.8646 </r>
       <r>    -3.1530    51.5880   473.1346 </r>
       <r>    -2.8958    61.7974   489.0307 </r>
       <r>    -2.6386    65.4654   505.8703 </r>
       <r>    -2.3814    87.9933   528.5048 </r>
       <r>    -2.1241   124.8891   560.6300 </r>
       <r>    -1.8669   156.3082   600.8371 </r>
       <r>    -1.6097   165.6377   643.4440 </r>
       <r>    -1.3524   149.8686   681.9946 </r>
       <r>    -1.0952   121.2192   713.1758 </r>
       <r>    -0.8380   116.1803   743.0608 </r>
       <r>    -0.5807   102.5857   769.4489 </r>
       <r>    -0.3235    75.5518   788.8830 </r>
       <r>    -0.0663    62.5604   804.9754 </r>
       <r>     0.1909    57.2168   819.6933 </r>
       <r>     0.4482    54.8511   833.8026 </r>
       <r>     0.7054    53.9375   847.6769 </r>
       <r>     0.9626    59.7426   863.0445 </r>
       <r>     1.2199    32.0580   871.2907 </r>
       <r>     1.4771     9.8601   873.8270 </r>
       <r>     1.7343    12.4360   877.0260 </r>
       <r>     1.9915     3.6931   877.9759 </r>
       <r>     2.2488     2.0506   878.5034 </r>
       <r>     2.5060    10.0100   881.0782 </r>
       <r>     2.7632    12.2792   884.2368 </r>
       <r>     3.0205     6.3916   885.8809 </r>
       <r>     3.2777     6.1678   887.4675 </r>
       <r>     3.5349    17.3188   891.9224 </r>
       <r>     3.7922    13.1162   895.2962 </r>
       <r>     4.0494    19.1035   900.2102 </r>
       <r>     4.3066    29.7312   907.8579 </r>
       <r>     4.5638    28.7656   915.2573 </r>
       <r>     4.8211    32.6928   923.6669 </r>
       <r>     5.0783    32.2781   931.9697 </r>
       <r>     5.3355    35.4668   941.0928 </r>
       <r>     5.5928    46.2595   952.9921 </r>
       <r>     5.8500    24.9485   959.4096 </r>
       <r>     6.1072     2.2768   959.9953 </r>
       <r>     6.3644     0.0183   960.0000 </r>
       <r>     6.6217     0.0000   960.0000 </r>
       <r>     6.8789     0.0000   960.0000 </r>
       <r>     7.1361     0.0000   960.0000 </r>
       <r>     7.3934     0.0000   960.0000 </r>
       <r>     7.6506     0.0000   960.0000 </r>
       <r>     7.9078     0.0000   960.0000 </r>
       <r>     8.1651     0.0000   960.0000 </r>
       <r>     8.4223     0.0000   960.0000 </r>
       <r>     8.6795     0.0000   960.0000 </r>
       <r>     8.9367     0.0000   960.0000 </r>
       <r>     9.1940     0.0000   960.0000 </r>
      </set>
     </set>
    </array>
   </total>
  </dos>
 </calculation>
 <structure name="finalpos" >
  <crystal>
   <varray name="basis" >
    <v>      16.88469405       0.00000000       0.00000000 </v>
    <v>       0.00000000       9.57841000       0.00000000 </v>
    <v>       0.00000000       0.00000000      16.16908712 </v>
   </varray>
   <i name="volume">   2615.00256803 </i>
   <varray name="rec_basis" >
    <v>       0.05922524       0.00000000       0.00000000 </v>
    <v>       0.00000000       0.10440146       0.00000000 </v>
    <v>       0.00000000       0.00000000       0.06184641 </v>
   </varray>
  </crystal>
  <varray name="positions" >
   <v>       0.78004631       0.14529695       0.12058499 </v>
   <v>       0.81461426       0.14529695       0.31135294 </v>
   <v>       0.26276233       0.64529695       0.02520102 </v>
   <v>       0.29733029       0.64529695       0.21596897 </v>
   <v>       0.43519032       0.14529695       0.05699568 </v>
   <v>       0.46975828       0.14529695       0.24776362 </v>
   <v>       0.95247430       0.64529695       0.15237965 </v>
   <v>       0.98704226       0.64529695       0.34314760 </v>
   <v>       0.12490229       0.14529695       0.18417431 </v>
   <v>       0.15947025       0.14529695       0.37494226 </v>
   <v>       0.64218627       0.64529695       0.27955828 </v>
   <v>       0.90758278       0.01319395       0.09538397 </v>
   <v>       0.39029880       0.51319395       0.00000000 </v>
   <v>       0.42486675       0.51319395       0.19076795 </v>
   <v>       0.45943471       0.51319395       0.38153589 </v>
   <v>       0.56272679       0.01319395       0.03179466 </v>
   <v>       0.59729475       0.01319395       0.22256261 </v>
   <v>       0.08001077       0.51319395       0.12717863 </v>
   <v>       0.11457873       0.51319395       0.31794658 </v>
   <v>       0.25243876       0.01319395       0.15897329 </v>
   <v>       0.28700672       0.01319395       0.34974124 </v>
   <v>       0.73515478       0.51319395       0.06358932 </v>
   <v>       0.76972274       0.51319395       0.25435726 </v>
   <v>       0.90758278       0.27739995       0.09538397 </v>
   <v>       0.94215073       0.27739995       0.28615192 </v>
   <v>       0.39029880       0.77739995       0.00000000 </v>
   <v>       0.42486675       0.77739995       0.19076795 </v>
   <v>       0.45943471       0.77739995       0.38153589 </v>
   <v>       0.56272679       0.27739995       0.03179466 </v>
   <v>       0.59729475       0.27739995       0.22256261 </v>
   <v>       0.08001077       0.77739995       0.12717863 </v>
   <v>       0.11457873       0.77739995       0.31794658 </v>
   <v>       0.25243876       0.27739995       0.15897329 </v>
   <v>       0.28700672       0.27739995       0.34974124 </v>
   <v>       0.73515478       0.77739995       0.06358932 </v>
   <v>       0.76972274       0.77739995       0.25435726 </v>
   <v>       0.02602916       0.14529695       0.37317765 </v>
   <v>       0.99146121       0.14529695       0.18240970 </v>
   <v>       0.47417723       0.64529695       0.08702573 </v>
   <v>       0.50874518       0.64529695       0.27779368 </v>
   <v>       0.64660522       0.14529695       0.11882039 </v>
   <v>       0.68117318       0.14529695       0.30958834 </v>
   <v>       0.12932124       0.64529695       0.02343641 </v>
   <v>       0.16388920       0.64529695       0.21420436 </v>
   <v>       0.30174923       0.14529695       0.05523107 </v>
   <v>       0.33631719       0.14529695       0.24599902 </v>
   <v>       0.81903321       0.64529695       0.15061505 </v>
   <v>       0.85360117       0.64529695       0.34138299 </v>
   <v>       0.79449310       0.31351195       0.02373179 </v>
   <v>       0.82906105       0.31351195       0.21449973 </v>
   <v>       0.31177708       0.81351195       0.11911576 </v>
   <v>       0.34634503       0.81351195       0.30988371 </v>
   <v>       0.48420507       0.31351195       0.15091042 </v>
   <v>       0.51877303       0.31351195       0.34167837 </v>
   <v>       0.00148905       0.81351195       0.24629439 </v>
   <v>       0.96692109       0.81351195       0.05552644 </v>
   <v>       0.13934908       0.31351195       0.08732110 </v>
   <v>       0.17391704       0.31351195       0.27808905 </v>
   <v>       0.65663306       0.81351195       0.18270508 </v>
   <v>       0.69120102       0.81351195       0.37347302 </v>
   <v>       0.31177708       0.47708195       0.11911576 </v>
   <v>       0.34634503       0.47708195       0.30988371 </v>
   <v>       0.79449310       0.97708195       0.02373179 </v>
   <v>       0.82906105       0.97708195       0.21449973 </v>
   <v>       0.00148905       0.47708195       0.24629439 </v>
   <v>       0.96692109       0.47708195       0.05552644 </v>
   <v>       0.48420507       0.97708195       0.15091042 </v>
   <v>       0.51877303       0.97708195       0.34167837 </v>
   <v>       0.65663306       0.47708195       0.18270508 </v>
   <v>       0.69120102       0.47708195       0.37347302 </v>
   <v>       0.13934908       0.97708195       0.08732110 </v>
   <v>       0.17391704       0.97708195       0.27808905 </v>
  </varray>
 </structure>
</modeling>
