<?xml version="1.0" encoding="ISO-8859-1"?>
<modeling>
 <generator>
  <i name="program" type="string">vasp </i>
  <i name="version" type="string">6.1.0  </i>
  <i name="subversion" type="string">28Jan20 (build Mar 31 2020 17:42:31) gamma-only                       parallel </i>
  <i name="platform" type="string">LinuxIFC </i>
  <i name="date" type="string">2020 04 12 </i>
  <i name="time" type="string">00:05:21 </i>
 </generator>
 <incar>
  <i type="string" name="SYSTEM">"Millerite NiS"</i>
  <i type="int" name="NSIM">     4</i>
  <i type="int" name="NELM">   100</i>
  <i name="ENCUT">    450.00000000</i>
  <i type="string" name="LREAL">A</i>
  <i type="int" name="ISMEAR">     0</i>
  <i type="int" name="NWRITE">     2</i>
  <i type="logical" name="LWAVE"> F  </i>
  <i type="logical" name="LCHARG"> F  </i>
  <i type="int" name="NCORE">     6</i>
  <i type="int" name="NELM">   100</i>
 </incar>
 <structure name="primitive_cell" >
  <crystal>
   <varray name="basis" >
    <v>      10.06282034       5.04456212       0.00000000 </v>
    <v>       0.00000000      11.25646304       0.00000000 </v>
    <v>       0.00000000       0.00000000      21.74423184 </v>
   </varray>
   <i name="volume">   2463.00752351 </i>
   <varray name="rec_basis" >
    <v>       0.09937572       0.00000000       0.00000000 </v>
    <v>      -0.04453504       0.08883785       0.00000000 </v>
    <v>       0.00000000       0.00000000       0.04598921 </v>
   </varray>
  </crystal>
  <varray name="positions" >
   <v>       0.26092070       0.47878036       0.25332799 </v>
   <v>       0.35488056       0.38482049       0.38835497 </v>
   <v>       0.44884043       0.29086063       0.52338195 </v>
   <v>       0.16696083       0.07274024       0.11830101 </v>
   <v>       0.05611868       0.05147940       0.48770701 </v>
   <v>       0.27423907       0.33335899       0.08262607 </v>
   <v>       0.36819893       0.23939913       0.21765305 </v>
   <v>       0.46215880       0.14543926       0.35268003 </v>
   <v>       0.00030194       0.37150212       0.21765305 </v>
   <v>       0.09426181       0.27754226       0.35268003 </v>
   <v>       0.18822168       0.18358239       0.48770701 </v>
   <v>       0.40634206       0.46546199       0.08262607 </v>
   <v>       0.76092070       0.47878036       0.25332799 </v>
   <v>       0.85488056       0.38482049       0.38835497 </v>
   <v>       0.94884043       0.29086063       0.52338195 </v>
   <v>       0.66696083       0.07274024       0.11830101 </v>
   <v>       0.55611868       0.05147940       0.48770701 </v>
   <v>       0.77423907       0.33335899       0.08262607 </v>
   <v>       0.86819893       0.23939913       0.21765305 </v>
   <v>       0.96215880       0.14543926       0.35268003 </v>
   <v>       0.50030194       0.37150212       0.21765305 </v>
   <v>       0.59426181       0.27754226       0.35268003 </v>
   <v>       0.68822168       0.18358239       0.48770701 </v>
   <v>       0.90634206       0.46546199       0.08262607 </v>
   <v>       0.26092070       0.97878036       0.25332799 </v>
   <v>       0.35488056       0.88482049       0.38835497 </v>
   <v>       0.44884043       0.79086063       0.52338195 </v>
   <v>       0.16696083       0.57274024       0.11830101 </v>
   <v>       0.05611868       0.55147940       0.48770701 </v>
   <v>       0.27423907       0.83335899       0.08262607 </v>
   <v>       0.36819893       0.73939913       0.21765305 </v>
   <v>       0.46215880       0.64543926       0.35268003 </v>
   <v>       0.00030194       0.87150212       0.21765305 </v>
   <v>       0.09426181       0.77754226       0.35268003 </v>
   <v>       0.18822168       0.68358239       0.48770701 </v>
   <v>       0.40634206       0.96546199       0.08262607 </v>
   <v>       0.76092070       0.97878036       0.25332799 </v>
   <v>       0.85488056       0.88482049       0.38835497 </v>
   <v>       0.94884043       0.79086063       0.52338195 </v>
   <v>       0.66696083       0.57274024       0.11830101 </v>
   <v>       0.55611868       0.55147940       0.48770701 </v>
   <v>       0.77423907       0.83335899       0.08262607 </v>
   <v>       0.86819893       0.73939913       0.21765305 </v>
   <v>       0.96215880       0.64543926       0.35268003 </v>
   <v>       0.50030194       0.87150212       0.21765305 </v>
   <v>       0.59426181       0.77754226       0.35268003 </v>
   <v>       0.68822168       0.68358239       0.48770701 </v>
   <v>       0.90634206       0.96546199       0.08262607 </v>
   <v>       0.07287763       0.16682343       0.27005396 </v>
   <v>       0.16683750       0.07286357       0.40508094 </v>
   <v>       0.47891775       0.26078330       0.13502698 </v>
   <v>       0.26079737       0.47890369       0.54010792 </v>
   <v>       0.03023342       0.37768264       0.45050807 </v>
   <v>       0.43627354       0.47164251       0.31548109 </v>
   <v>       0.24835381       0.15956225       0.04542713 </v>
   <v>       0.34231368       0.06560239       0.18045411 </v>
   <v>       0.17409868       0.39738738       0.18045411 </v>
   <v>       0.26805855       0.30342751       0.31548109 </v>
   <v>       0.36201842       0.20946764       0.45050807 </v>
   <v>       0.57287763       0.16682343       0.27005396 </v>
   <v>       0.66683750       0.07286357       0.40508094 </v>
   <v>       0.88495789       0.35474317       0.00000000 </v>
   <v>       0.97891775       0.26078330       0.13502698 </v>
   <v>       0.76079737       0.47890369       0.54010792 </v>
   <v>       0.53023342       0.37768264       0.45050807 </v>
   <v>       0.93627354       0.47164251       0.31548109 </v>
   <v>       0.74835381       0.15956225       0.04542713 </v>
   <v>       0.84231368       0.06560239       0.18045411 </v>
   <v>       0.58013882       0.49134724       0.04542713 </v>
   <v>       0.67409868       0.39738738       0.18045411 </v>
   <v>       0.76805855       0.30342751       0.31548109 </v>
   <v>       0.86201842       0.20946764       0.45050807 </v>
   <v>       0.07287763       0.66682343       0.27005396 </v>
   <v>       0.16683750       0.57286357       0.40508094 </v>
   <v>       0.47891775       0.76078330       0.13502698 </v>
   <v>       0.26079737       0.97890369       0.54010792 </v>
   <v>       0.03023342       0.87768264       0.45050807 </v>
   <v>       0.43627354       0.97164251       0.31548109 </v>
   <v>       0.34231368       0.56560239       0.18045411 </v>
   <v>       0.08013882       0.99134724       0.04542713 </v>
   <v>       0.17409868       0.89738738       0.18045411 </v>
   <v>       0.26805855       0.80342751       0.31548109 </v>
   <v>       0.36201842       0.70946764       0.45050807 </v>
   <v>       0.57287763       0.66682343       0.27005396 </v>
   <v>       0.66683750       0.57286357       0.40508094 </v>
   <v>       0.88495789       0.85474317       0.00000000 </v>
   <v>       0.97891775       0.76078330       0.13502698 </v>
   <v>       0.76079737       0.97890369       0.54010792 </v>
   <v>       0.53023342       0.87768264       0.45050807 </v>
   <v>       0.93627354       0.97164251       0.31548109 </v>
   <v>       0.74835381       0.65956225       0.04542713 </v>
   <v>       0.84231368       0.56560239       0.18045411 </v>
   <v>       0.58013882       0.99134724       0.04542713 </v>
   <v>       0.67409868       0.89738738       0.18045411 </v>
   <v>       0.76805855       0.80342751       0.31548109 </v>
   <v>       0.86201842       0.70946764       0.45050807 </v>
  </varray>
 </structure>
 <varray name="primitive_index" >
  <v type="int" >        1 </v>
  <v type="int" >        2 </v>
  <v type="int" >        3 </v>
  <v type="int" >        4 </v>
  <v type="int" >        5 </v>
  <v type="int" >        6 </v>
  <v type="int" >        7 </v>
  <v type="int" >        8 </v>
  <v type="int" >        9 </v>
  <v type="int" >       10 </v>
  <v type="int" >       11 </v>
  <v type="int" >       12 </v>
  <v type="int" >       13 </v>
  <v type="int" >       14 </v>
  <v type="int" >       15 </v>
  <v type="int" >       16 </v>
  <v type="int" >       17 </v>
  <v type="int" >       18 </v>
  <v type="int" >       19 </v>
  <v type="int" >       20 </v>
  <v type="int" >       21 </v>
  <v type="int" >       22 </v>
  <v type="int" >       23 </v>
  <v type="int" >       24 </v>
  <v type="int" >       25 </v>
  <v type="int" >       26 </v>
  <v type="int" >       27 </v>
  <v type="int" >       28 </v>
  <v type="int" >       29 </v>
  <v type="int" >       30 </v>
  <v type="int" >       31 </v>
  <v type="int" >       32 </v>
  <v type="int" >       33 </v>
  <v type="int" >       34 </v>
  <v type="int" >       35 </v>
  <v type="int" >       36 </v>
  <v type="int" >       37 </v>
  <v type="int" >       38 </v>
  <v type="int" >       39 </v>
  <v type="int" >       40 </v>
  <v type="int" >       41 </v>
  <v type="int" >       42 </v>
  <v type="int" >       43 </v>
  <v type="int" >       44 </v>
  <v type="int" >       45 </v>
  <v type="int" >       46 </v>
  <v type="int" >       47 </v>
  <v type="int" >       48 </v>
  <v type="int" >       49 </v>
  <v type="int" >       50 </v>
  <v type="int" >       51 </v>
  <v type="int" >       52 </v>
  <v type="int" >       53 </v>
  <v type="int" >       54 </v>
  <v type="int" >       55 </v>
  <v type="int" >       56 </v>
  <v type="int" >       57 </v>
  <v type="int" >       58 </v>
  <v type="int" >       59 </v>
  <v type="int" >       60 </v>
  <v type="int" >       61 </v>
  <v type="int" >       62 </v>
  <v type="int" >       63 </v>
  <v type="int" >       64 </v>
  <v type="int" >       65 </v>
  <v type="int" >       66 </v>
  <v type="int" >       67 </v>
  <v type="int" >       68 </v>
  <v type="int" >       69 </v>
  <v type="int" >       70 </v>
  <v type="int" >       71 </v>
  <v type="int" >       72 </v>
  <v type="int" >       73 </v>
  <v type="int" >       74 </v>
  <v type="int" >       75 </v>
  <v type="int" >       76 </v>
  <v type="int" >       77 </v>
  <v type="int" >       78 </v>
  <v type="int" >       79 </v>
  <v type="int" >       80 </v>
  <v type="int" >       81 </v>
  <v type="int" >       82 </v>
  <v type="int" >       83 </v>
  <v type="int" >       84 </v>
  <v type="int" >       85 </v>
  <v type="int" >       86 </v>
  <v type="int" >       87 </v>
  <v type="int" >       88 </v>
  <v type="int" >       89 </v>
  <v type="int" >       90 </v>
  <v type="int" >       91 </v>
  <v type="int" >       92 </v>
  <v type="int" >       93 </v>
  <v type="int" >       94 </v>
  <v type="int" >       95 </v>
  <v type="int" >       96 </v>
 </varray>
 <kpoints>
  <generation param="Gamma">
   <v type="int" name="divisions">       1        1        1 </v>
   <v name="usershift">      0.00000000       0.00000000       0.00000000 </v>
   <v name="genvec1">      1.00000000       0.00000000       0.00000000 </v>
   <v name="genvec2">     -0.00000000       1.00000000       0.00000000 </v>
   <v name="genvec3">      0.00000000       0.00000000       1.00000000 </v>
   <v name="shift">      0.00000000       0.00000000       0.00000000 </v>
  </generation>
  <varray name="kpointlist" >
   <v>       0.00000000       0.00000000       0.00000000 </v>
  </varray>
  <varray name="weights" >
   <v>       1.00000000 </v>
  </varray>
 </kpoints>
 <parameters>
  <separator name="general" >
   <i type="string" name="SYSTEM">"Millerite NiS"</i>
   <i type="logical" name="LCOMPAT"> F  </i>
  </separator>
  <separator name="electronic" >
   <i type="string" name="PREC">normal</i>
   <i name="ENMAX">    450.00000000</i>
   <i name="ENAUG">    703.44300000</i>
   <i name="EDIFF">      0.00010000</i>
   <i type="int" name="IALGO">    38</i>
   <i type="int" name="IWAVPR">    10</i>
   <i type="int" name="NBANDS">   640</i>
   <i type="int" name="NBANDSLOW">    -1</i>
   <i type="int" name="NBANDSHIGH">    -1</i>
   <i name="NELECT">   1056.00000000</i>
   <i type="int" name="TURBO">     0</i>
   <i type="int" name="IRESTART">     0</i>
   <i type="int" name="NREBOOT">     0</i>
   <i type="int" name="NMIN">     0</i>
   <i name="EREF">      0.00000000</i>
   <separator name="electronic smearing" >
    <i type="int" name="ISMEAR">     0</i>
    <i name="SIGMA">      0.20000000</i>
    <i name="KSPACING">      0.50000000</i>
    <i type="logical" name="KGAMMA"> T  </i>
    <i type="logical" name="KBLOWUP"> T  </i>
   </separator>
   <separator name="electronic projectors" >
    <i type="logical" name="LREAL"> T  </i>
    <v name="ROPT">     -0.00050000     -0.00050000</v>
    <i type="int" name="LMAXPAW">  -100</i>
    <i type="int" name="LMAXMIX">     2</i>
    <i type="logical" name="NLSPLINE"> F  </i>
   </separator>
   <separator name="electronic startup" >
    <i type="int" name="ISTART">     0</i>
    <i type="int" name="ICHARG">     2</i>
    <i type="int" name="INIWAV">     1</i>
   </separator>
   <separator name="electronic spin" >
    <i type="int" name="ISPIN">     1</i>
    <i type="logical" name="LNONCOLLINEAR"> F  </i>
    <v name="MAGMOM">      1.00000000      1.00000000      1.00000000      1.00000000      1.00000000      1.00000000      1.00000000      1.00000000      1.00000000      1.00000000      1.00000000      1.00000000      1.00000000      1.00000000      1.00000000      1.00000000      1.00000000      1.00000000      1.00000000      1.00000000
      1.00000000      1.00000000      1.00000000      1.00000000      1.00000000      1.00000000      1.00000000      1.00000000      1.00000000      1.00000000      1.00000000      1.00000000      1.00000000      1.00000000      1.00000000      1.00000000      1.00000000      1.00000000      1.00000000      1.00000000
      1.00000000      1.00000000      1.00000000      1.00000000      1.00000000      1.00000000      1.00000000      1.00000000      1.00000000      1.00000000      1.00000000      1.00000000      1.00000000      1.00000000      1.00000000      1.00000000      1.00000000      1.00000000      1.00000000      1.00000000
      1.00000000      1.00000000      1.00000000      1.00000000      1.00000000      1.00000000      1.00000000      1.00000000      1.00000000      1.00000000      1.00000000      1.00000000      1.00000000      1.00000000      1.00000000      1.00000000      1.00000000      1.00000000      1.00000000      1.00000000
      1.00000000      1.00000000      1.00000000      1.00000000      1.00000000      1.00000000      1.00000000      1.00000000      1.00000000      1.00000000      1.00000000      1.00000000      1.00000000      1.00000000      1.00000000      1.00000000</v>
    <i name="NUPDOWN">     -1.00000000</i>
    <i type="logical" name="LSORBIT"> F  </i>
    <v name="SAXIS">      0.00000000      0.00000000      1.00000000</v>
    <i type="logical" name="LSPIRAL"> F  </i>
    <v name="QSPIRAL">      0.00000000      0.00000000      0.00000000</v>
    <i type="logical" name="LZEROZ"> F  </i>
   </separator>
   <separator name="electronic exchange-correlation" >
    <i type="logical" name="LASPH"> F  </i>
    <i type="logical" name="LMETAGGA"> F  </i>
   </separator>
   <separator name="electronic convergence" >
    <i type="int" name="NELM">   100</i>
    <i type="int" name="NELMDL">    -5</i>
    <i type="int" name="NELMIN">     2</i>
    <i name="ENINI">    450.00000000</i>
    <separator name="electronic convergence detail" >
     <i type="logical" name="LDIAG"> T  </i>
     <i type="logical" name="LSUBROT"> F  </i>
     <i name="WEIMIN">      0.00000000</i>
     <i name="EBREAK">      0.00000004</i>
     <i name="DEPER">      0.30000000</i>
     <i type="int" name="NRMM">     4</i>
     <i name="TIME">      0.40000000</i>
    </separator>
   </separator>
   <separator name="electronic mixer" >
    <i name="AMIX">      0.40000000</i>
    <i name="BMIX">      1.00000000</i>
    <i name="AMIN">      0.10000000</i>
    <i name="AMIX_MAG">      1.60000000</i>
    <i name="BMIX_MAG">      1.00000000</i>
    <separator name="electronic mixer details" >
     <i type="int" name="IMIX">     4</i>
     <i type="logical" name="MIXFIRST"> F  </i>
     <i type="int" name="MAXMIX">   -45</i>
     <i name="WC">    100.00000000</i>
     <i type="int" name="INIMIX">     1</i>
     <i type="int" name="MIXPRE">     1</i>
     <i type="int" name="MREMOVE">     5</i>
    </separator>
   </separator>
   <separator name="electronic dipolcorrection" >
    <i type="logical" name="LDIPOL"> F  </i>
    <i type="logical" name="LMONO"> F  </i>
    <i type="int" name="IDIPOL">     0</i>
    <i name="EPSILON">      1.00000000</i>
    <v name="DIPOL">   -100.00000000   -100.00000000   -100.00000000</v>
    <i name="EFIELD">      0.00000000</i>
   </separator>
  </separator>
  <separator name="grids" >
   <i type="int" name="NGX">    60</i>
   <i type="int" name="NGY">    60</i>
   <i type="int" name="NGZ">   120</i>
   <i type="int" name="NGXF">   120</i>
   <i type="int" name="NGYF">   120</i>
   <i type="int" name="NGZF">   240</i>
   <i type="logical" name="ADDGRID"> F  </i>
  </separator>
  <separator name="ionic" >
   <i type="int" name="NSW">     0</i>
   <i type="int" name="IBRION">    -1</i>
   <i type="int" name="MDALGO">     0</i>
   <i type="int" name="ISIF">     2</i>
   <i name="PSTRESS">      0.00000000</i>
   <i name="EDIFFG">      0.00100000</i>
   <i type="int" name="NFREE">     0</i>
   <i name="POTIM">      0.50000000</i>
   <i name="SMASS">     -3.00000000</i>
   <i name="SCALEE">      1.00000000</i>
  </separator>
  <separator name="ionic md" >
   <i name="TEBEG">      0.00010000</i>
   <i name="TEEND">      0.00010000</i>
   <i type="int" name="NBLOCK">     1</i>
   <i type="int" name="KBLOCK">     1</i>
   <i type="int" name="NPACO">   256</i>
   <i name="APACO">     16.00000000</i>
  </separator>
  <separator name="symmetry" >
   <i type="int" name="ISYM">     2</i>
   <i name="SYMPREC">      0.00001000</i>
  </separator>
  <separator name="dos" >
   <i type="int" name="LORBIT">     0</i>
   <v name="RWIGS">     -1.00000000     -1.00000000</v>
   <i type="int" name="NEDOS">   301</i>
   <i name="EMIN">     10.00000000</i>
   <i name="EMAX">    -10.00000000</i>
   <i name="EFERMI">      0.00000000</i>
  </separator>
  <separator name="writing" >
   <i type="int" name="NWRITE">     2</i>
   <i type="logical" name="LWAVE"> F  </i>
   <i type="logical" name="LDOWNSAMPLE"> F  </i>
   <i type="logical" name="LCHARG"> F  </i>
   <i type="logical" name="LPARD"> F  </i>
   <i type="logical" name="LVTOT"> F  </i>
   <i type="logical" name="LVHAR"> F  </i>
   <i type="logical" name="LELF"> F  </i>
   <i type="logical" name="LOPTICS"> F  </i>
   <v name="STM">      0.00000000      0.00000000      0.00000000      0.00000000      0.00000000      0.00000000      0.00000000</v>
  </separator>
  <separator name="performance" >
   <i type="int" name="NPAR">     8</i>
   <i type="int" name="NSIM">     4</i>
   <i type="int" name="NBLK">    -1</i>
   <i type="logical" name="LPLANE"> T  </i>
   <i type="logical" name="LSCALAPACK"> T  </i>
   <i type="logical" name="LSCAAWARE"> F  </i>
   <i type="logical" name="LSCALU"> F  </i>
   <i type="logical" name="LASYNC"> F  </i>
   <i type="logical" name="LORBITALREAL"> F  </i>
  </separator>
  <separator name="miscellaneous" >
   <i type="int" name="IDIOT">     3</i>
   <i type="int" name="PHON_NSTRUCT">    -1</i>
   <i type="logical" name="LMUSIC"> F  </i>
   <v name="POMASS">     58.69000000     32.06600000</v>
   <v name="DARWINR">      0.00000000      0.00000000</v>
   <v name="DARWINV">      1.00000000      1.00000000</v>
   <i type="logical" name="LCORR"> T  </i>
  </separator>
  <i type="logical" name="GGA_COMPAT"> T  </i>
  <i type="logical" name="LBERRY"> F  </i>
  <i type="int" name="ICORELEVEL">     0</i>
  <i type="logical" name="LDAU"> F  </i>
  <i type="int" name="I_CONSTRAINED_M">     0</i>
  <separator name="electronic exchange-correlation" >
   <i type="string" name="GGA">--</i>
   <i type="int" name="VOSKOWN">     0</i>
   <i type="logical" name="LHFCALC"> F  </i>
   <i type="string" name="PRECFOCK"></i>
   <i type="logical" name="LSYMGRAD"> F  </i>
   <i type="logical" name="LHFONE"> F  </i>
   <i type="logical" name="LRHFCALC"> F  </i>
   <i type="logical" name="LTHOMAS"> F  </i>
   <i type="logical" name="LMODELHF"> F  </i>
   <i type="logical" name="LFOCKACE"> F  </i>
   <i name="ENCUT4O">     -1.00000000</i>
   <i type="int" name="EXXOEP">     0</i>
   <i type="int" name="FOURORBIT">     0</i>
   <i name="AEXX">      0.00000000</i>
   <i name="HFALPHA">      0.00000000</i>
   <i name="MCALPHA">      0.00000000</i>
   <i name="ALDAX">      1.00000000</i>
   <i name="AGGAX">      1.00000000</i>
   <i name="ALDAC">      1.00000000</i>
   <i name="AGGAC">      1.00000000</i>
   <i type="int" name="NKREDX">     1</i>
   <i type="int" name="NKREDY">     1</i>
   <i type="int" name="NKREDZ">     1</i>
   <i type="logical" name="SHIFTRED"> F  </i>
   <i type="logical" name="ODDONLY"> F  </i>
   <i type="logical" name="EVENONLY"> F  </i>
   <i type="int" name="LMAXFOCK">     0</i>
   <i type="int" name="NMAXFOCKAE">     0</i>
   <i type="logical" name="LFOCKAEDFT"> F  </i>
   <i name="HFSCREEN">      0.00000000</i>
   <i name="HFSCREENC">      0.00000000</i>
   <i type="int" name="NBANDSGWLOW">     0</i>
  </separator>
  <separator name="vdW DFT" >
   <i type="logical" name="LUSE_VDW"> F  </i>
   <i name="Zab_VDW">     -0.84910000</i>
   <i name="PARAM1">      0.12340000</i>
   <i name="PARAM2">      1.00000000</i>
   <i name="PARAM3">      0.00000000</i>
  </separator>
  <separator name="model GW" >
   <i type="int" name="MODEL_GW">     0</i>
   <i name="MODEL_EPS0">     15.39379702</i>
   <i name="MODEL_ALPHA">      1.00000000</i>
  </separator>
  <separator name="linear response parameters" >
   <i type="logical" name="LEPSILON"> F  </i>
   <i type="logical" name="LRPA"> F  </i>
   <i type="logical" name="LNABLA"> F  </i>
   <i type="logical" name="LVEL"> F  </i>
   <i type="int" name="KINTER">     0</i>
   <i name="CSHIFT">      0.10000000</i>
   <i name="OMEGAMAX">     -1.00000000</i>
   <i name="DEG_THRESHOLD">      0.00200000</i>
   <i name="RTIME">     -0.10000000</i>
   <i name="WPLASMAI">      0.00000000</i>
   <v name="DFIELD">      0.00000000      0.00000000      0.00000000</v>
   <v name="WPLASMA">      0.00000000      0.00000000      0.00000000      0.00000000      0.00000000      0.00000000      0.00000000      0.00000000      0.00000000</v>
  </separator>
  <separator name="orbital magnetization" >
   <i type="logical" name="NUCIND"> F  </i>
   <v name="MAGPOS">      0.00000000      0.00000000      0.00000000</v>
   <i type="logical" name="LNICSALL"> T  </i>
   <i type="logical" name="ORBITALMAG"> F  </i>
   <i type="logical" name="LMAGBLOCH"> F  </i>
   <i type="logical" name="LCHIMAG"> F  </i>
   <i type="logical" name="LGAUGE"> T  </i>
   <i type="int" name="MAGATOM">     0</i>
   <v name="MAGDIPOL">      0.00000000      0.00000000      0.00000000</v>
   <v name="AVECCONST">      0.00000000      0.00000000      0.00000000</v>
  </separator>
  <separator name="response functions" >
   <i type="logical" name="LFINITE_TEMPERATURE"> F  </i>
   <i type="logical" name="LADDER"> F  </i>
   <i type="logical" name="LRPAFORCE"> F  </i>
   <i type="logical" name="LFXC"> F  </i>
   <i type="logical" name="LHARTREE"> T  </i>
   <i type="int" name="IBSE">     0</i>
   <v type="int" name="KPOINT">    -1     0     0     0</v>
   <i type="logical" name="LTCTC"> F  </i>
   <i type="logical" name="LTCTE"> F  </i>
   <i type="logical" name="LTETE"> F  </i>
   <i type="logical" name="LTRIPLET"> F  </i>
   <i type="logical" name="LFXCEPS"> F  </i>
   <i type="logical" name="LFXHEG"> F  </i>
   <i type="int" name="NATURALO">     2</i>
   <i type="logical" name="LHOLEGF"> F  </i>
   <i type="logical" name="L2ORDER"> F  </i>
   <i type="logical" name="LDMP1"> F  </i>
   <i type="logical" name="LMP2LT"> F  </i>
   <i type="logical" name="LSMP2LT"> F  </i>
   <i type="logical" name="LGWLF"> F  </i>
   <i name="ENCUTGW">     -2.00000000</i>
   <i name="ENCUTGWSOFT">     -2.00000000</i>
   <i name="ENCUTLF">     -1.00000000</i>
   <i type="logical" name="LESF_SPLINES"> F  </i>
   <i type="int" name="LMAXMP2">    -1</i>
   <i name="SCISSOR">      0.00000000</i>
   <i type="int" name="NOMEGA">     0</i>
   <i type="int" name="NOMEGAR">     0</i>
   <i type="int" name="NBANDSGW">    -1</i>
   <i type="int" name="NBANDSO">    -1</i>
   <i type="int" name="NBANDSV">    -1</i>
   <i type="int" name="NELM">   100</i>
   <i type="int" name="NELMHF">     1</i>
   <i type="int" name="DIM">     3</i>
   <i type="int" name="IESPILON">     4</i>
   <i type="int" name="ANTIRES">     0</i>
   <i name="OMEGAMAX">    -30.00000000</i>
   <i name="OMEGAMIN">    -30.00000000</i>
   <i name="OMEGATL">   -200.00000000</i>
   <i type="int" name="OMEGAGRID">     0</i>
   <i name="CSHIFT">     -0.10000000</i>
   <i type="logical" name="LSELFENERGY"> F  </i>
   <i type="logical" name="LSPECTRAL"> F  </i>
   <i type="logical" name="LSPECTRALGW"> F  </i>
   <i type="logical" name="LSINGLES"> F  </i>
   <i type="logical" name="LFERMIGW"> F  </i>
   <i type="logical" name="ODDONLYGW"> F  </i>
   <i type="logical" name="EVENONLYGW"> F  </i>
   <i type="int" name="NKREDLFX">     1</i>
   <i type="int" name="NKREDLFY">     1</i>
   <i type="int" name="NKREDLFZ">     1</i>
   <i type="int" name="MAXMEM">  2800</i>
   <i type="int" name="TELESCOPE">     0</i>
   <i type="int" name="NTAUPAR">    -1</i>
   <i type="int" name="NOMEGAPAR">    -1</i>
   <i name="LAMBDA">      1.00000000</i>
  </separator>
  <separator name="External order field" >
   <i name="OFIELD_KAPPA">      0.00000000</i>
   <v name="OFIELD_K">      0.00000000      0.00000000      0.00000000</v>
   <i name="OFIELD_Q6_NEAR">      0.00000000</i>
   <i name="OFIELD_Q6_FAR">      0.00000000</i>
   <i name="OFIELD_A">      0.00000000</i>
  </separator>
 </parameters>
 <atominfo>
  <atoms>      96 </atoms>
  <types>       2 </types>
  <array name="atoms" >
   <dimension dim="1">ion</dimension>
   <field type="string">element</field>
   <field type="int">atomtype</field>
   <set>
    <rc><c>Ni</c><c>   1</c></rc>
    <rc><c>Ni</c><c>   1</c></rc>
    <rc><c>Ni</c><c>   1</c></rc>
    <rc><c>Ni</c><c>   1</c></rc>
    <rc><c>Ni</c><c>   1</c></rc>
    <rc><c>Ni</c><c>   1</c></rc>
    <rc><c>Ni</c><c>   1</c></rc>
    <rc><c>Ni</c><c>   1</c></rc>
    <rc><c>Ni</c><c>   1</c></rc>
    <rc><c>Ni</c><c>   1</c></rc>
    <rc><c>Ni</c><c>   1</c></rc>
    <rc><c>Ni</c><c>   1</c></rc>
    <rc><c>Ni</c><c>   1</c></rc>
    <rc><c>Ni</c><c>   1</c></rc>
    <rc><c>Ni</c><c>   1</c></rc>
    <rc><c>Ni</c><c>   1</c></rc>
    <rc><c>Ni</c><c>   1</c></rc>
    <rc><c>Ni</c><c>   1</c></rc>
    <rc><c>Ni</c><c>   1</c></rc>
    <rc><c>Ni</c><c>   1</c></rc>
    <rc><c>Ni</c><c>   1</c></rc>
    <rc><c>Ni</c><c>   1</c></rc>
    <rc><c>Ni</c><c>   1</c></rc>
    <rc><c>Ni</c><c>   1</c></rc>
    <rc><c>Ni</c><c>   1</c></rc>
    <rc><c>Ni</c><c>   1</c></rc>
    <rc><c>Ni</c><c>   1</c></rc>
    <rc><c>Ni</c><c>   1</c></rc>
    <rc><c>Ni</c><c>   1</c></rc>
    <rc><c>Ni</c><c>   1</c></rc>
    <rc><c>Ni</c><c>   1</c></rc>
    <rc><c>Ni</c><c>   1</c></rc>
    <rc><c>Ni</c><c>   1</c></rc>
    <rc><c>Ni</c><c>   1</c></rc>
    <rc><c>Ni</c><c>   1</c></rc>
    <rc><c>Ni</c><c>   1</c></rc>
    <rc><c>Ni</c><c>   1</c></rc>
    <rc><c>Ni</c><c>   1</c></rc>
    <rc><c>Ni</c><c>   1</c></rc>
    <rc><c>Ni</c><c>   1</c></rc>
    <rc><c>Ni</c><c>   1</c></rc>
    <rc><c>Ni</c><c>   1</c></rc>
    <rc><c>Ni</c><c>   1</c></rc>
    <rc><c>Ni</c><c>   1</c></rc>
    <rc><c>Ni</c><c>   1</c></rc>
    <rc><c>Ni</c><c>   1</c></rc>
    <rc><c>Ni</c><c>   1</c></rc>
    <rc><c>Ni</c><c>   1</c></rc>
    <rc><c>S </c><c>   2</c></rc>
    <rc><c>S </c><c>   2</c></rc>
    <rc><c>S </c><c>   2</c></rc>
    <rc><c>S </c><c>   2</c></rc>
    <rc><c>S </c><c>   2</c></rc>
    <rc><c>S </c><c>   2</c></rc>
    <rc><c>S </c><c>   2</c></rc>
    <rc><c>S </c><c>   2</c></rc>
    <rc><c>S </c><c>   2</c></rc>
    <rc><c>S </c><c>   2</c></rc>
    <rc><c>S </c><c>   2</c></rc>
    <rc><c>S </c><c>   2</c></rc>
    <rc><c>S </c><c>   2</c></rc>
    <rc><c>S </c><c>   2</c></rc>
    <rc><c>S </c><c>   2</c></rc>
    <rc><c>S </c><c>   2</c></rc>
    <rc><c>S </c><c>   2</c></rc>
    <rc><c>S </c><c>   2</c></rc>
    <rc><c>S </c><c>   2</c></rc>
    <rc><c>S </c><c>   2</c></rc>
    <rc><c>S </c><c>   2</c></rc>
    <rc><c>S </c><c>   2</c></rc>
    <rc><c>S </c><c>   2</c></rc>
    <rc><c>S </c><c>   2</c></rc>
    <rc><c>S </c><c>   2</c></rc>
    <rc><c>S </c><c>   2</c></rc>
    <rc><c>S </c><c>   2</c></rc>
    <rc><c>S </c><c>   2</c></rc>
    <rc><c>S </c><c>   2</c></rc>
    <rc><c>S </c><c>   2</c></rc>
    <rc><c>S </c><c>   2</c></rc>
    <rc><c>S </c><c>   2</c></rc>
    <rc><c>S </c><c>   2</c></rc>
    <rc><c>S </c><c>   2</c></rc>
    <rc><c>S </c><c>   2</c></rc>
    <rc><c>S </c><c>   2</c></rc>
    <rc><c>S </c><c>   2</c></rc>
    <rc><c>S </c><c>   2</c></rc>
    <rc><c>S </c><c>   2</c></rc>
    <rc><c>S </c><c>   2</c></rc>
    <rc><c>S </c><c>   2</c></rc>
    <rc><c>S </c><c>   2</c></rc>
    <rc><c>S </c><c>   2</c></rc>
    <rc><c>S </c><c>   2</c></rc>
    <rc><c>S </c><c>   2</c></rc>
    <rc><c>S </c><c>   2</c></rc>
    <rc><c>S </c><c>   2</c></rc>
    <rc><c>S </c><c>   2</c></rc>
   </set>
  </array>
  <array name="atomtypes" >
   <dimension dim="1">type</dimension>
   <field type="int">atomspertype</field>
   <field type="string">element</field>
   <field>mass</field>
   <field>valence</field>
   <field type="string">pseudopotential</field>
   <set>
    <rc><c>  48</c><c>Ni</c><c>     58.69000000</c><c>     16.00000000</c><c>  PAW_PBE Ni_pv 06Sep2000               </c></rc>
    <rc><c>  48</c><c>S </c><c>     32.06600000</c><c>      6.00000000</c><c>  PAW_PBE S 06Sep2000                   </c></rc>
   </set>
  </array>
 </atominfo>
 <structure name="initialpos" >
  <crystal>
   <varray name="basis" >
    <v>      10.06282034       5.04456212       0.00000000 </v>
    <v>       0.00000000      11.25646304       0.00000000 </v>
    <v>       0.00000000       0.00000000      21.74423184 </v>
   </varray>
   <i name="volume">   2463.00752351 </i>
   <varray name="rec_basis" >
    <v>       0.09937572       0.00000000       0.00000000 </v>
    <v>      -0.04453504       0.08883785       0.00000000 </v>
    <v>       0.00000000       0.00000000       0.04598921 </v>
   </varray>
  </crystal>
  <varray name="positions" >
   <v>       0.26092070       0.47878036       0.25332799 </v>
   <v>       0.35488056       0.38482049       0.38835497 </v>
   <v>       0.44884043       0.29086063       0.52338195 </v>
   <v>       0.16696083       0.07274024       0.11830101 </v>
   <v>       0.05611868       0.05147940       0.48770701 </v>
   <v>       0.27423907       0.33335899       0.08262607 </v>
   <v>       0.36819893       0.23939913       0.21765305 </v>
   <v>       0.46215880       0.14543926       0.35268003 </v>
   <v>       0.00030194       0.37150212       0.21765305 </v>
   <v>       0.09426181       0.27754226       0.35268003 </v>
   <v>       0.18822168       0.18358239       0.48770701 </v>
   <v>       0.40634206       0.46546199       0.08262607 </v>
   <v>       0.76092070       0.47878036       0.25332799 </v>
   <v>       0.85488056       0.38482049       0.38835497 </v>
   <v>       0.94884043       0.29086063       0.52338195 </v>
   <v>       0.66696083       0.07274024       0.11830101 </v>
   <v>       0.55611868       0.05147940       0.48770701 </v>
   <v>       0.77423907       0.33335899       0.08262607 </v>
   <v>       0.86819893       0.23939913       0.21765305 </v>
   <v>       0.96215880       0.14543926       0.35268003 </v>
   <v>       0.50030194       0.37150212       0.21765305 </v>
   <v>       0.59426181       0.27754226       0.35268003 </v>
   <v>       0.68822168       0.18358239       0.48770701 </v>
   <v>       0.90634206       0.46546199       0.08262607 </v>
   <v>       0.26092070       0.97878036       0.25332799 </v>
   <v>       0.35488056       0.88482049       0.38835497 </v>
   <v>       0.44884043       0.79086063       0.52338195 </v>
   <v>       0.16696083       0.57274024       0.11830101 </v>
   <v>       0.05611868       0.55147940       0.48770701 </v>
   <v>       0.27423907       0.83335899       0.08262607 </v>
   <v>       0.36819893       0.73939913       0.21765305 </v>
   <v>       0.46215880       0.64543926       0.35268003 </v>
   <v>       0.00030194       0.87150212       0.21765305 </v>
   <v>       0.09426181       0.77754226       0.35268003 </v>
   <v>       0.18822168       0.68358239       0.48770701 </v>
   <v>       0.40634206       0.96546199       0.08262607 </v>
   <v>       0.76092070       0.97878036       0.25332799 </v>
   <v>       0.85488056       0.88482049       0.38835497 </v>
   <v>       0.94884043       0.79086063       0.52338195 </v>
   <v>       0.66696083       0.57274024       0.11830101 </v>
   <v>       0.55611868       0.55147940       0.48770701 </v>
   <v>       0.77423907       0.83335899       0.08262607 </v>
   <v>       0.86819893       0.73939913       0.21765305 </v>
   <v>       0.96215880       0.64543926       0.35268003 </v>
   <v>       0.50030194       0.87150212       0.21765305 </v>
   <v>       0.59426181       0.77754226       0.35268003 </v>
   <v>       0.68822168       0.68358239       0.48770701 </v>
   <v>       0.90634206       0.96546199       0.08262607 </v>
   <v>       0.07287763       0.16682343       0.27005396 </v>
   <v>       0.16683750       0.07286357       0.40508094 </v>
   <v>       0.47891775       0.26078330       0.13502698 </v>
   <v>       0.26079737       0.47890369       0.54010792 </v>
   <v>       0.03023342       0.37768264       0.45050807 </v>
   <v>       0.43627354       0.47164251       0.31548109 </v>
   <v>       0.24835381       0.15956225       0.04542713 </v>
   <v>       0.34231368       0.06560239       0.18045411 </v>
   <v>       0.17409868       0.39738738       0.18045411 </v>
   <v>       0.26805855       0.30342751       0.31548109 </v>
   <v>       0.36201842       0.20946764       0.45050807 </v>
   <v>       0.57287763       0.16682343       0.27005396 </v>
   <v>       0.66683750       0.07286357       0.40508094 </v>
   <v>       0.88495789       0.35474317       0.00000000 </v>
   <v>       0.97891775       0.26078330       0.13502698 </v>
   <v>       0.76079737       0.47890369       0.54010792 </v>
   <v>       0.53023342       0.37768264       0.45050807 </v>
   <v>       0.93627354       0.47164251       0.31548109 </v>
   <v>       0.74835381       0.15956225       0.04542713 </v>
   <v>       0.84231368       0.06560239       0.18045411 </v>
   <v>       0.58013882       0.49134725       0.04542713 </v>
   <v>       0.67409868       0.39738738       0.18045411 </v>
   <v>       0.76805855       0.30342751       0.31548109 </v>
   <v>       0.86201842       0.20946764       0.45050807 </v>
   <v>       0.07287763       0.66682343       0.27005396 </v>
   <v>       0.16683750       0.57286357       0.40508094 </v>
   <v>       0.47891775       0.76078330       0.13502698 </v>
   <v>       0.26079737       0.97890369       0.54010792 </v>
   <v>       0.03023342       0.87768264       0.45050807 </v>
   <v>       0.43627354       0.97164251       0.31548109 </v>
   <v>       0.34231368       0.56560239       0.18045411 </v>
   <v>       0.08013882       0.99134725       0.04542713 </v>
   <v>       0.17409868       0.89738738       0.18045411 </v>
   <v>       0.26805855       0.80342751       0.31548109 </v>
   <v>       0.36201842       0.70946764       0.45050807 </v>
   <v>       0.57287763       0.66682343       0.27005396 </v>
   <v>       0.66683750       0.57286357       0.40508094 </v>
   <v>       0.88495789       0.85474317       0.00000000 </v>
   <v>       0.97891775       0.76078330       0.13502698 </v>
   <v>       0.76079737       0.97890369       0.54010792 </v>
   <v>       0.53023342       0.87768264       0.45050807 </v>
   <v>       0.93627354       0.97164251       0.31548109 </v>
   <v>       0.74835381       0.65956225       0.04542713 </v>
   <v>       0.84231368       0.56560239       0.18045411 </v>
   <v>       0.58013882       0.99134725       0.04542713 </v>
   <v>       0.67409868       0.89738738       0.18045411 </v>
   <v>       0.76805855       0.80342751       0.31548109 </v>
   <v>       0.86201842       0.70946764       0.45050807 </v>
  </varray>
 </structure>
 <calculation>
  <scstep>
   <time name="dav">    6.53    6.55</time>
   <time name="total">    6.63    6.65</time>
   <energy>
    <i name="alphaZ">   2684.99175279 </i>
    <i name="ewald"> 245025.77521770 </i>
    <i name="hartreedc">-409028.29643852 </i>
    <i name="XCdc">   4873.94964400 </i>
    <i name="pawpsdc"> 150306.04444553 </i>
    <i name="pawaedc">-156855.34918313 </i>
    <i name="eentropy">     -0.52125707 </i>
    <i name="bandstr">  -4983.44455130 </i>
    <i name="atom"> 181336.80673834 </i>
    <i name="e_fr_energy">  13359.95636835 </i>
    <i name="e_wo_entrp">  13360.47762542 </i>
    <i name="e_0_energy">  13360.21699689 </i>
   </energy>
  </scstep>
  <scstep>
   <time name="dav">    5.80    5.82</time>
   <time name="total">    5.80    5.82</time>
   <energy>
    <i name="e_fr_energy">    880.47888080 </i>
    <i name="e_wo_entrp">    881.50893503 </i>
    <i name="e_0_energy">    880.99390791 </i>
   </energy>
  </scstep>
  <scstep>
   <time name="dav">    6.20    6.22</time>
   <time name="total">    6.20    6.22</time>
   <energy>
    <i name="e_fr_energy">   -454.55242999 </i>
    <i name="e_wo_entrp">   -453.16327037 </i>
    <i name="e_0_energy">   -453.85785018 </i>
   </energy>
  </scstep>
  <scstep>
   <time name="dav">    6.29    6.31</time>
   <time name="total">    6.29    6.31</time>
   <energy>
    <i name="e_fr_energy">   -544.98593238 </i>
    <i name="e_wo_entrp">   -543.49885261 </i>
    <i name="e_0_energy">   -544.24239249 </i>
   </energy>
  </scstep>
  <scstep>
   <time name="dav">    6.99    7.01</time>
   <time name="total">    7.12    7.13</time>
   <energy>
    <i name="e_fr_energy">   -548.56729645 </i>
    <i name="e_wo_entrp">   -547.07792759 </i>
    <i name="e_0_energy">   -547.82261202 </i>
   </energy>
  </scstep>
  <scstep>
   <time name="dav">    6.50    6.52</time>
   <time name="total">    6.72    6.75</time>
   <energy>
    <i name="e_fr_energy">   -676.53561528 </i>
    <i name="e_wo_entrp">   -675.33625074 </i>
    <i name="e_0_energy">   -675.93593301 </i>
   </energy>
  </scstep>
  <scstep>
   <time name="dav">    6.24    6.26</time>
   <time name="total">    6.46    6.48</time>
   <energy>
    <i name="e_fr_energy">   -517.27607635 </i>
    <i name="e_wo_entrp">   -516.08047790 </i>
    <i name="e_0_energy">   -516.67827712 </i>
   </energy>
  </scstep>
  <scstep>
   <time name="dav">    6.49    6.51</time>
   <time name="total">    6.72    6.73</time>
   <energy>
    <i name="e_fr_energy">   -759.08279422 </i>
    <i name="e_wo_entrp">   -758.07882974 </i>
    <i name="e_0_energy">   -758.58081198 </i>
   </energy>
  </scstep>
  <scstep>
   <time name="dav">    7.07    7.09</time>
   <time name="total">    7.29    7.31</time>
   <energy>
    <i name="e_fr_energy">   -548.91484121 </i>
    <i name="e_wo_entrp">   -547.05758118 </i>
    <i name="e_0_energy">   -547.98621120 </i>
   </energy>
  </scstep>
  <scstep>
   <time name="dav">    7.66    7.68</time>
   <time name="total">    7.88    7.91</time>
   <energy>
    <i name="e_fr_energy">   -517.13452739 </i>
    <i name="e_wo_entrp">   -515.26575745 </i>
    <i name="e_0_energy">   -516.20014242 </i>
   </energy>
  </scstep>
  <scstep>
   <time name="dav">    7.19    7.21</time>
   <time name="total">    7.41    7.43</time>
   <energy>
    <i name="e_fr_energy">   -516.26191290 </i>
    <i name="e_wo_entrp">   -514.27450546 </i>
    <i name="e_0_energy">   -515.26820918 </i>
   </energy>
  </scstep>
  <scstep>
   <time name="dav">    7.16    7.18</time>
   <time name="total">    7.38    7.40</time>
   <energy>
    <i name="e_fr_energy">   -499.85632592 </i>
    <i name="e_wo_entrp">   -498.43912681 </i>
    <i name="e_0_energy">   -499.14772637 </i>
   </energy>
  </scstep>
  <scstep>
   <time name="dav">    7.31    7.33</time>
   <time name="total">    7.53    7.55</time>
   <energy>
    <i name="e_fr_energy">   -502.93257256 </i>
    <i name="e_wo_entrp">   -501.87999213 </i>
    <i name="e_0_energy">   -502.40628235 </i>
   </energy>
  </scstep>
  <scstep>
   <time name="dav">    6.68    6.69</time>
   <time name="total">    6.90    6.92</time>
   <energy>
    <i name="e_fr_energy">   -491.51286005 </i>
    <i name="e_wo_entrp">   -490.19091940 </i>
    <i name="e_0_energy">   -490.85188973 </i>
   </energy>
  </scstep>
  <scstep>
   <time name="dav">    7.15    7.17</time>
   <time name="total">    7.37    7.39</time>
   <energy>
    <i name="e_fr_energy">   -487.52371713 </i>
    <i name="e_wo_entrp">   -486.26290159 </i>
    <i name="e_0_energy">   -486.89330936 </i>
   </energy>
  </scstep>
  <scstep>
   <time name="dav">    7.15    7.16</time>
   <time name="total">    7.37    7.39</time>
   <energy>
    <i name="e_fr_energy">   -483.34932481 </i>
    <i name="e_wo_entrp">   -482.13601516 </i>
    <i name="e_0_energy">   -482.74266998 </i>
   </energy>
  </scstep>
  <scstep>
   <time name="dav">    7.16    7.18</time>
   <time name="total">    7.38    7.40</time>
   <energy>
    <i name="e_fr_energy">   -482.21804403 </i>
    <i name="e_wo_entrp">   -480.91159725 </i>
    <i name="e_0_energy">   -481.56482064 </i>
   </energy>
  </scstep>
  <scstep>
   <time name="dav">    7.09    7.11</time>
   <time name="total">    7.31    7.33</time>
   <energy>
    <i name="e_fr_energy">   -481.50637601 </i>
    <i name="e_wo_entrp">   -480.16262303 </i>
    <i name="e_0_energy">   -480.83449952 </i>
   </energy>
  </scstep>
  <scstep>
   <time name="dav">    6.81    6.83</time>
   <time name="total">    7.04    7.06</time>
   <energy>
    <i name="e_fr_energy">   -481.32361814 </i>
    <i name="e_wo_entrp">   -480.01456654 </i>
    <i name="e_0_energy">   -480.66909234 </i>
   </energy>
  </scstep>
  <scstep>
   <time name="dav">    6.85    6.87</time>
   <time name="total">    7.08    7.10</time>
   <energy>
    <i name="e_fr_energy">   -480.95784265 </i>
    <i name="e_wo_entrp">   -479.63828659 </i>
    <i name="e_0_energy">   -480.29806462 </i>
   </energy>
  </scstep>
  <scstep>
   <time name="dav">    7.34    7.36</time>
   <time name="total">    7.57    7.60</time>
   <energy>
    <i name="e_fr_energy">   -480.80224369 </i>
    <i name="e_wo_entrp">   -479.48048402 </i>
    <i name="e_0_energy">   -480.14136386 </i>
   </energy>
  </scstep>
  <scstep>
   <time name="dav">    7.34    7.36</time>
   <time name="total">    7.56    7.58</time>
   <energy>
    <i name="e_fr_energy">   -480.49455864 </i>
    <i name="e_wo_entrp">   -479.07297379 </i>
    <i name="e_0_energy">   -479.78376621 </i>
   </energy>
  </scstep>
  <scstep>
   <time name="dav">    6.66    6.68</time>
   <time name="total">    6.89    6.90</time>
   <energy>
    <i name="e_fr_energy">   -480.40984128 </i>
    <i name="e_wo_entrp">   -479.00391900 </i>
    <i name="e_0_energy">   -479.70688014 </i>
   </energy>
  </scstep>
  <scstep>
   <time name="dav">    6.49    6.51</time>
   <time name="total">    6.72    6.73</time>
   <energy>
    <i name="e_fr_energy">   -480.41713649 </i>
    <i name="e_wo_entrp">   -479.01168380 </i>
    <i name="e_0_energy">   -479.71441015 </i>
   </energy>
  </scstep>
  <scstep>
   <time name="dav">    6.56    6.57</time>
   <time name="total">    6.78    6.80</time>
   <energy>
    <i name="e_fr_energy">   -480.42203017 </i>
    <i name="e_wo_entrp">   -479.02913365 </i>
    <i name="e_0_energy">   -479.72558191 </i>
   </energy>
  </scstep>
  <scstep>
   <time name="dav">    7.20    7.22</time>
   <time name="total">    7.43    7.45</time>
   <energy>
    <i name="e_fr_energy">   -480.37972722 </i>
    <i name="e_wo_entrp">   -479.00930598 </i>
    <i name="e_0_energy">   -479.69451660 </i>
   </energy>
  </scstep>
  <scstep>
   <time name="dav">    6.87    6.89</time>
   <time name="total">    7.10    7.11</time>
   <energy>
    <i name="e_fr_energy">   -480.34297834 </i>
    <i name="e_wo_entrp">   -478.97232973 </i>
    <i name="e_0_energy">   -479.65765403 </i>
   </energy>
  </scstep>
  <scstep>
   <time name="dav">    7.18    7.20</time>
   <time name="total">    7.41    7.43</time>
   <energy>
    <i name="e_fr_energy">   -480.30648867 </i>
    <i name="e_wo_entrp">   -478.95984761 </i>
    <i name="e_0_energy">   -479.63316814 </i>
   </energy>
  </scstep>
  <scstep>
   <time name="dav">    6.93    6.95</time>
   <time name="total">    7.16    7.18</time>
   <energy>
    <i name="e_fr_energy">   -480.28453908 </i>
    <i name="e_wo_entrp">   -478.93590074 </i>
    <i name="e_0_energy">   -479.61021991 </i>
   </energy>
  </scstep>
  <scstep>
   <time name="dav">    6.77    6.79</time>
   <time name="total">    7.00    7.02</time>
   <energy>
    <i name="e_fr_energy">   -480.28288738 </i>
    <i name="e_wo_entrp">   -478.93669783 </i>
    <i name="e_0_energy">   -479.60979260 </i>
   </energy>
  </scstep>
  <scstep>
   <time name="dav">    6.33    6.35</time>
   <time name="total">    6.56    6.57</time>
   <energy>
    <i name="e_fr_energy">   -480.27967064 </i>
    <i name="e_wo_entrp">   -478.92780481 </i>
    <i name="e_0_energy">   -479.60373773 </i>
   </energy>
  </scstep>
  <scstep>
   <time name="dav">    7.08    7.10</time>
   <time name="total">    7.31    7.33</time>
   <energy>
    <i name="e_fr_energy">   -480.27738218 </i>
    <i name="e_wo_entrp">   -478.92580208 </i>
    <i name="e_0_energy">   -479.60159213 </i>
   </energy>
  </scstep>
  <scstep>
   <time name="dav">    6.97    6.99</time>
   <time name="total">    7.20    7.22</time>
   <energy>
    <i name="e_fr_energy">   -480.27305535 </i>
    <i name="e_wo_entrp">   -478.91954215 </i>
    <i name="e_0_energy">   -479.59629875 </i>
   </energy>
  </scstep>
  <scstep>
   <time name="dav">    7.02    7.04</time>
   <time name="total">    7.25    7.27</time>
   <energy>
    <i name="e_fr_energy">   -480.27176642 </i>
    <i name="e_wo_entrp">   -478.91886423 </i>
    <i name="e_0_energy">   -479.59531532 </i>
   </energy>
  </scstep>
  <scstep>
   <time name="dav">    6.32    6.33</time>
   <time name="total">    6.55    6.57</time>
   <energy>
    <i name="e_fr_energy">   -480.27096520 </i>
    <i name="e_wo_entrp">   -478.91862710 </i>
    <i name="e_0_energy">   -479.59479615 </i>
   </energy>
  </scstep>
  <scstep>
   <time name="dav">    6.31    6.33</time>
   <time name="total">    6.54    6.56</time>
   <energy>
    <i name="e_fr_energy">   -480.27111777 </i>
    <i name="e_wo_entrp">   -478.91622702 </i>
    <i name="e_0_energy">   -479.59367239 </i>
   </energy>
  </scstep>
  <scstep>
   <time name="dav">    5.28    5.30</time>
   <time name="total">    5.51    5.53</time>
   <energy>
    <i name="e_fr_energy">   -480.27100621 </i>
    <i name="e_wo_entrp">   -478.91754687 </i>
    <i name="e_0_energy">   -479.59427654 </i>
   </energy>
  </scstep>
  <scstep>
   <time name="dav">    5.20    5.21</time>
   <time name="total">    5.42    5.44</time>
   <energy>
    <i name="e_fr_energy">   -480.27116680 </i>
    <i name="e_wo_entrp">   -478.91721137 </i>
    <i name="e_0_energy">   -479.59418908 </i>
   </energy>
  </scstep>
  <scstep>
   <time name="dav">    5.19    5.20</time>
   <time name="total">    5.42    5.43</time>
   <energy>
    <i name="e_fr_energy">   -480.27140680 </i>
    <i name="e_wo_entrp">   -478.92027023 </i>
    <i name="e_0_energy">   -479.59583851 </i>
   </energy>
  </scstep>
  <scstep>
   <time name="dav">    4.42    4.44</time>
   <time name="total">    4.65    4.66</time>
   <energy>
    <i name="e_fr_energy">   -480.27168724 </i>
    <i name="e_wo_entrp">   -478.92103557 </i>
    <i name="e_0_energy">   -479.59636140 </i>
   </energy>
  </scstep>
  <scstep>
   <time name="dav">    4.02    4.02</time>
   <time name="total">    4.12    4.13</time>
   <energy>
    <i name="alphaZ">   2684.99175279 </i>
    <i name="ewald"> 245025.77521770 </i>
    <i name="hartreedc">-407746.69234011 </i>
    <i name="XCdc">   4831.95039559 </i>
    <i name="pawpsdc"> 174724.97475982 </i>
    <i name="pawaedc">-181358.24930131 </i>
    <i name="eentropy">     -1.35094951 </i>
    <i name="bandstr"> -19978.47801457 </i>
    <i name="atom"> 181336.80673834 </i>
    <i name="e_fr_energy">   -480.27174127 </i>
    <i name="e_wo_entrp">   -478.92079176 </i>
    <i name="e_0_energy">   -479.59626651 </i>
   </energy>
  </scstep>
  <structure>
   <crystal>
    <varray name="basis" >
     <v>      10.06282034       5.04456212       0.00000000 </v>
     <v>       0.00000000      11.25646304       0.00000000 </v>
     <v>       0.00000000       0.00000000      21.74423184 </v>
    </varray>
    <i name="volume">   2463.00752351 </i>
    <varray name="rec_basis" >
     <v>       0.09937572       0.00000000       0.00000000 </v>
     <v>      -0.04453504       0.08883785       0.00000000 </v>
     <v>       0.00000000       0.00000000       0.04598921 </v>
    </varray>
   </crystal>
   <varray name="positions" >
    <v>       0.26092070       0.47878036       0.25332799 </v>
    <v>       0.35488056       0.38482049       0.38835497 </v>
    <v>       0.44884043       0.29086063       0.52338195 </v>
    <v>       0.16696083       0.07274024       0.11830101 </v>
    <v>       0.05611868       0.05147940       0.48770701 </v>
    <v>       0.27423907       0.33335899       0.08262607 </v>
    <v>       0.36819893       0.23939913       0.21765305 </v>
    <v>       0.46215880       0.14543926       0.35268003 </v>
    <v>       0.00030194       0.37150212       0.21765305 </v>
    <v>       0.09426181       0.27754226       0.35268003 </v>
    <v>       0.18822168       0.18358239       0.48770701 </v>
    <v>       0.40634206       0.46546199       0.08262607 </v>
    <v>       0.76092070       0.47878036       0.25332799 </v>
    <v>       0.85488056       0.38482049       0.38835497 </v>
    <v>       0.94884043       0.29086063       0.52338195 </v>
    <v>       0.66696083       0.07274024       0.11830101 </v>
    <v>       0.55611868       0.05147940       0.48770701 </v>
    <v>       0.77423907       0.33335899       0.08262607 </v>
    <v>       0.86819893       0.23939913       0.21765305 </v>
    <v>       0.96215880       0.14543926       0.35268003 </v>
    <v>       0.50030194       0.37150212       0.21765305 </v>
    <v>       0.59426181       0.27754226       0.35268003 </v>
    <v>       0.68822168       0.18358239       0.48770701 </v>
    <v>       0.90634206       0.46546199       0.08262607 </v>
    <v>       0.26092070       0.97878036       0.25332799 </v>
    <v>       0.35488056       0.88482049       0.38835497 </v>
    <v>       0.44884043       0.79086063       0.52338195 </v>
    <v>       0.16696083       0.57274024       0.11830101 </v>
    <v>       0.05611868       0.55147940       0.48770701 </v>
    <v>       0.27423907       0.83335899       0.08262607 </v>
    <v>       0.36819893       0.73939913       0.21765305 </v>
    <v>       0.46215880       0.64543926       0.35268003 </v>
    <v>       0.00030194       0.87150212       0.21765305 </v>
    <v>       0.09426181       0.77754226       0.35268003 </v>
    <v>       0.18822168       0.68358239       0.48770701 </v>
    <v>       0.40634206       0.96546199       0.08262607 </v>
    <v>       0.76092070       0.97878036       0.25332799 </v>
    <v>       0.85488056       0.88482049       0.38835497 </v>
    <v>       0.94884043       0.79086063       0.52338195 </v>
    <v>       0.66696083       0.57274024       0.11830101 </v>
    <v>       0.55611868       0.55147940       0.48770701 </v>
    <v>       0.77423907       0.83335899       0.08262607 </v>
    <v>       0.86819893       0.73939913       0.21765305 </v>
    <v>       0.96215880       0.64543926       0.35268003 </v>
    <v>       0.50030194       0.87150212       0.21765305 </v>
    <v>       0.59426181       0.77754226       0.35268003 </v>
    <v>       0.68822168       0.68358239       0.48770701 </v>
    <v>       0.90634206       0.96546199       0.08262607 </v>
    <v>       0.07287763       0.16682343       0.27005396 </v>
    <v>       0.16683750       0.07286357       0.40508094 </v>
    <v>       0.47891775       0.26078330       0.13502698 </v>
    <v>       0.26079737       0.47890369       0.54010792 </v>
    <v>       0.03023342       0.37768264       0.45050807 </v>
    <v>       0.43627354       0.47164251       0.31548109 </v>
    <v>       0.24835381       0.15956225       0.04542713 </v>
    <v>       0.34231368       0.06560239       0.18045411 </v>
    <v>       0.17409868       0.39738738       0.18045411 </v>
    <v>       0.26805855       0.30342751       0.31548109 </v>
    <v>       0.36201842       0.20946764       0.45050807 </v>
    <v>       0.57287763       0.16682343       0.27005396 </v>
    <v>       0.66683750       0.07286357       0.40508094 </v>
    <v>       0.88495789       0.35474317       0.00000000 </v>
    <v>       0.97891775       0.26078330       0.13502698 </v>
    <v>       0.76079737       0.47890369       0.54010792 </v>
    <v>       0.53023342       0.37768264       0.45050807 </v>
    <v>       0.93627354       0.47164251       0.31548109 </v>
    <v>       0.74835381       0.15956225       0.04542713 </v>
    <v>       0.84231368       0.06560239       0.18045411 </v>
    <v>       0.58013882       0.49134725       0.04542713 </v>
    <v>       0.67409868       0.39738738       0.18045411 </v>
    <v>       0.76805855       0.30342751       0.31548109 </v>
    <v>       0.86201842       0.20946764       0.45050807 </v>
    <v>       0.07287763       0.66682343       0.27005396 </v>
    <v>       0.16683750       0.57286357       0.40508094 </v>
    <v>       0.47891775       0.76078330       0.13502698 </v>
    <v>       0.26079737       0.97890369       0.54010792 </v>
    <v>       0.03023342       0.87768264       0.45050807 </v>
    <v>       0.43627354       0.97164251       0.31548109 </v>
    <v>       0.34231368       0.56560239       0.18045411 </v>
    <v>       0.08013882       0.99134725       0.04542713 </v>
    <v>       0.17409868       0.89738738       0.18045411 </v>
    <v>       0.26805855       0.80342751       0.31548109 </v>
    <v>       0.36201842       0.70946764       0.45050807 </v>
    <v>       0.57287763       0.66682343       0.27005396 </v>
    <v>       0.66683750       0.57286357       0.40508094 </v>
    <v>       0.88495789       0.85474317       0.00000000 </v>
    <v>       0.97891775       0.76078330       0.13502698 </v>
    <v>       0.76079737       0.97890369       0.54010792 </v>
    <v>       0.53023342       0.87768264       0.45050807 </v>
    <v>       0.93627354       0.97164251       0.31548109 </v>
    <v>       0.74835381       0.65956225       0.04542713 </v>
    <v>       0.84231368       0.56560239       0.18045411 </v>
    <v>       0.58013882       0.99134725       0.04542713 </v>
    <v>       0.67409868       0.89738738       0.18045411 </v>
    <v>       0.76805855       0.80342751       0.31548109 </v>
    <v>       0.86201842       0.70946764       0.45050807 </v>
   </varray>
  </structure>
  <varray name="forces" >
   <v>      -0.08768251       0.06537843      -0.20764702 </v>
   <v>       0.11824683      -0.08458198      -0.00411019 </v>
   <v>      -1.02690308       0.63118077      -1.29731451 </v>
   <v>      -0.09988732      -0.06343593      -0.43727587 </v>
   <v>       0.74253883       0.03367679      -0.55339046 </v>
   <v>       0.20339252      -0.81403347       1.06481850 </v>
   <v>      -0.04208400       0.00234534      -0.08358804 </v>
   <v>       0.09118339      -0.08964473       0.02937172 </v>
   <v>      -0.05277998      -0.01438738      -0.06390568 </v>
   <v>       0.17311297      -0.02638272       0.05235199 </v>
   <v>       0.31739908      -0.68954770      -0.56136456 </v>
   <v>       0.78236382       0.32078243       1.08837587 </v>
   <v>       0.08506426      -0.14932767      -0.07632275 </v>
   <v>       0.09503599      -0.07355060       0.02312136 </v>
   <v>      -1.03732903       0.63009992      -1.29407739 </v>
   <v>      -0.15155494       0.12721674      -0.38100415 </v>
   <v>       0.73081814       0.03090060      -0.57807487 </v>
   <v>      -0.07454196      -0.47996859      -0.66556260 </v>
   <v>      -0.02630721       0.10404055       0.02634383 </v>
   <v>       0.07614141      -0.17337477      -0.00047856 </v>
   <v>      -0.09151827       0.02119409      -0.12559803 </v>
   <v>       0.13393749      -0.05727667      -0.00235180 </v>
   <v>       0.28537527      -0.65572452      -0.57071919 </v>
   <v>      -0.69251422      -0.40707525      -0.22354841 </v>
   <v>       0.04759384       0.03546455      -0.02943454 </v>
   <v>       0.08386558      -0.07228906       0.00495993 </v>
   <v>      -1.01817703       0.63789967      -1.30159733 </v>
   <v>       0.17903302      -0.10811498       0.97390137 </v>
   <v>       0.74672289       0.02683750      -0.55390854 </v>
   <v>      -0.45972659       0.54696455       0.85596099 </v>
   <v>      -0.10995550       0.08378725      -0.16285525 </v>
   <v>       0.10768285      -0.09571117       0.04420996 </v>
   <v>      -0.11774467       0.03108370       0.09737657 </v>
   <v>       0.18823003       0.00179913       0.03681964 </v>
   <v>       0.30416475      -0.68854252      -0.56629520 </v>
   <v>       0.32107345       0.79468515       0.20801475 </v>
   <v>       0.05517442      -0.08542480      -0.07371383 </v>
   <v>       0.14338469      -0.09603692       0.01000457 </v>
   <v>      -1.03477255       0.64309341      -1.30648651 </v>
   <v>      -0.07508170       0.16978668      -0.29013744 </v>
   <v>       0.73835255       0.00620612      -0.56294798 </v>
   <v>      -0.18014162      -0.34326386      -0.48075921 </v>
   <v>      -0.05665267       0.18428742       0.09844766 </v>
   <v>       0.08773750      -0.20518174       0.02969025 </v>
   <v>      -0.20494304       0.08867290      -0.10655885 </v>
   <v>       0.13954366      -0.06909617       0.02024902 </v>
   <v>       0.29089074      -0.66016595      -0.57515985 </v>
   <v>       0.18858023       0.30191176      -0.50783590 </v>
   <v>       0.09333519       0.02781297       0.02241377 </v>
   <v>      -0.16909668       0.15314794      -0.00095069 </v>
   <v>      -0.59837953       0.35957935      -0.89530039 </v>
   <v>      -0.79718039       0.49947130       0.00097673 </v>
   <v>       0.27677521      -0.16781881       1.04919974 </v>
   <v>       0.01272921       0.09602606       0.13805102 </v>
   <v>       0.52720956       0.55915488       0.44422356 </v>
   <v>      -0.05946590      -0.12546104       0.10757195 </v>
   <v>       0.01271362       0.27737176      -1.01213628 </v>
   <v>      -0.08717592      -0.05327204       0.11007308 </v>
   <v>       0.30489910      -0.17747666       1.10628168 </v>
   <v>       0.12958634      -0.05807560      -0.03938777 </v>
   <v>      -0.20925405       0.14038804       0.07857949 </v>
   <v>       0.07209665       0.46536249       1.25742114 </v>
   <v>       0.00980579       0.21263667      -0.39269461 </v>
   <v>      -0.78628088       0.48860462       0.00391246 </v>
   <v>       0.30931722      -0.19052387       1.11366002 </v>
   <v>       0.03261908       0.02701512       0.11395491 </v>
   <v>       0.19986095       0.04455925       0.62648913 </v>
   <v>       0.03986963      -0.01452131      -0.15503102 </v>
   <v>      -0.82275677      -0.57154264       0.44498148 </v>
   <v>       0.00601553      -0.09473870      -0.13456562 </v>
   <v>       0.00485468       0.03940546       0.12656599 </v>
   <v>       0.27334461      -0.18717245       1.12095627 </v>
   <v>       0.07945541      -0.03601470       0.01745438 </v>
   <v>      -0.19153388       0.15000125      -0.00329969 </v>
   <v>      -0.36102151       0.05445087      -1.14602420 </v>
   <v>      -0.80341090       0.50298090      -0.01062731 </v>
   <v>       0.24734799      -0.19212071       1.05652263 </v>
   <v>       0.04990992       0.03123249       0.09735648 </v>
   <v>      -0.26698297      -0.17482447      -1.05939421 </v>
   <v>       0.76802842      -0.66569686       0.49143097 </v>
   <v>       0.06195045       0.07499909      -0.07663272 </v>
   <v>      -0.05155608      -0.08693754       0.15050357 </v>
   <v>       0.28078717      -0.19984388       1.09346890 </v>
   <v>      -0.03024137      -0.01999336       0.02726901 </v>
   <v>      -0.19885870       0.11930327       0.02944036 </v>
   <v>      -0.22346781       0.10870618       1.07354935 </v>
   <v>       0.57799466      -0.34279358      -0.89795324 </v>
   <v>      -0.78053690       0.48361200       0.02821684 </v>
   <v>       0.31504658      -0.15194446       1.15055880 </v>
   <v>       0.00276604       0.00372117       0.05745386 </v>
   <v>       0.72716891      -0.05573859       0.53418936 </v>
   <v>       0.08071168       0.04208038      -0.28113802 </v>
   <v>      -0.21599189      -0.60158797       0.40202211 </v>
   <v>       0.07924589       0.02026899      -0.16177785 </v>
   <v>      -0.00711786      -0.00402251       0.08130022 </v>
   <v>       0.26852223      -0.12692704       1.09087085 </v>
  </varray>
  <varray name="stress" >
   <v>     -23.64859453       5.01355931      -9.93519692 </v>
   <v>       5.01355922     -18.84690498       6.13081960 </v>
   <v>      -9.93519659       6.13081950     -22.07800422 </v>
  </varray>
  <energy>
   <i name="e_fr_energy">   -480.27174127 </i>
   <i name="e_wo_entrp">   -478.92079176 </i>
   <i name="e_0_energy">   -479.59626651 </i>
  </energy>
  <time name="totalsc">  283.00  283.77</time>
  <eigenvalues>
   <array>
    <dimension dim="1">band</dimension>
    <dimension dim="2">kpoint</dimension>
    <dimension dim="3">spin</dimension>
    <field>eigene</field>
    <field>occ</field>
    <set>
     <set comment="spin 1">
      <set comment="kpoint 1">
       <r>  -62.6110    1.0000 </r>
       <r>  -62.5888    1.0000 </r>
       <r>  -62.5852    1.0000 </r>
       <r>  -62.5844    1.0000 </r>
       <r>  -62.5754    1.0000 </r>
       <r>  -62.5670    1.0000 </r>
       <r>  -62.5610    1.0000 </r>
       <r>  -62.5551    1.0000 </r>
       <r>  -62.5549    1.0000 </r>
       <r>  -62.5525    1.0000 </r>
       <r>  -62.5506    1.0000 </r>
       <r>  -62.5486    1.0000 </r>
       <r>  -62.5440    1.0000 </r>
       <r>  -62.5414    1.0000 </r>
       <r>  -62.5401    1.0000 </r>
       <r>  -62.5387    1.0000 </r>
       <r>  -62.5314    1.0000 </r>
       <r>  -62.5309    1.0000 </r>
       <r>  -62.5303    1.0000 </r>
       <r>  -62.5292    1.0000 </r>
       <r>  -62.5279    1.0000 </r>
       <r>  -62.5258    1.0000 </r>
       <r>  -62.5246    1.0000 </r>
       <r>  -62.5243    1.0000 </r>
       <r>  -62.5236    1.0000 </r>
       <r>  -62.5221    1.0000 </r>
       <r>  -62.5171    1.0000 </r>
       <r>  -62.5167    1.0000 </r>
       <r>  -62.5166    1.0000 </r>
       <r>  -62.5160    1.0000 </r>
       <r>  -62.5160    1.0000 </r>
       <r>  -62.5151    1.0000 </r>
       <r>  -62.5148    1.0000 </r>
       <r>  -62.5122    1.0000 </r>
       <r>  -62.5096    1.0000 </r>
       <r>  -62.5041    1.0000 </r>
       <r>  -62.5039    1.0000 </r>
       <r>  -62.5038    1.0000 </r>
       <r>  -62.5014    1.0000 </r>
       <r>  -62.5012    1.0000 </r>
       <r>  -62.4968    1.0000 </r>
       <r>  -62.4959    1.0000 </r>
       <r>  -62.4944    1.0000 </r>
       <r>  -62.4936    1.0000 </r>
       <r>  -62.4933    1.0000 </r>
       <r>  -62.4924    1.0000 </r>
       <r>  -62.4903    1.0000 </r>
       <r>  -62.4898    1.0000 </r>
       <r>  -62.4890    1.0000 </r>
       <r>  -62.4879    1.0000 </r>
       <r>  -62.4875    1.0000 </r>
       <r>  -62.4875    1.0000 </r>
       <r>  -62.4818    1.0000 </r>
       <r>  -62.4805    1.0000 </r>
       <r>  -62.4773    1.0000 </r>
       <r>  -62.4759    1.0000 </r>
       <r>  -62.4735    1.0000 </r>
       <r>  -62.4728    1.0000 </r>
       <r>  -62.4690    1.0000 </r>
       <r>  -62.4677    1.0000 </r>
       <r>  -62.4601    1.0000 </r>
       <r>  -62.4521    1.0000 </r>
       <r>  -62.4476    1.0000 </r>
       <r>  -62.3765    1.0000 </r>
       <r>  -62.3699    1.0000 </r>
       <r>  -62.3680    1.0000 </r>
       <r>  -62.3659    1.0000 </r>
       <r>  -62.3481    1.0000 </r>
       <r>  -62.3376    1.0000 </r>
       <r>  -62.3349    1.0000 </r>
       <r>  -62.3291    1.0000 </r>
       <r>  -62.3266    1.0000 </r>
       <r>  -62.3254    1.0000 </r>
       <r>  -62.3243    1.0000 </r>
       <r>  -62.3243    1.0000 </r>
       <r>  -62.3231    1.0000 </r>
       <r>  -62.3224    1.0000 </r>
       <r>  -62.3151    1.0000 </r>
       <r>  -62.3131    1.0000 </r>
       <r>  -62.3056    1.0000 </r>
       <r>  -62.3054    1.0000 </r>
       <r>  -62.3022    1.0000 </r>
       <r>  -62.2985    1.0000 </r>
       <r>  -62.2980    1.0000 </r>
       <r>  -62.2957    1.0000 </r>
       <r>  -62.2945    1.0000 </r>
       <r>  -62.2846    1.0000 </r>
       <r>  -62.2836    1.0000 </r>
       <r>  -62.2827    1.0000 </r>
       <r>  -62.2813    1.0000 </r>
       <r>  -62.2745    1.0000 </r>
       <r>  -62.2727    1.0000 </r>
       <r>  -62.2718    1.0000 </r>
       <r>  -62.2686    1.0000 </r>
       <r>  -62.2581    1.0000 </r>
       <r>  -62.2569    1.0000 </r>
       <r>  -62.2539    1.0000 </r>
       <r>  -62.2525    1.0000 </r>
       <r>  -62.2353    1.0000 </r>
       <r>  -62.2347    1.0000 </r>
       <r>  -62.2326    1.0000 </r>
       <r>  -62.2314    1.0000 </r>
       <r>  -62.2295    1.0000 </r>
       <r>  -62.2241    1.0000 </r>
       <r>  -62.2059    1.0000 </r>
       <r>  -62.2029    1.0000 </r>
       <r>  -62.2022    1.0000 </r>
       <r>  -62.2019    1.0000 </r>
       <r>  -62.1999    1.0000 </r>
       <r>  -62.1522    1.0000 </r>
       <r>  -62.1340    1.0000 </r>
       <r>  -62.1293    1.0000 </r>
       <r>  -62.1284    1.0000 </r>
       <r>  -62.1280    1.0000 </r>
       <r>  -62.1243    1.0000 </r>
       <r>  -62.1194    1.0000 </r>
       <r>  -62.1182    1.0000 </r>
       <r>  -62.1158    1.0000 </r>
       <r>  -62.0127    1.0000 </r>
       <r>  -62.0059    1.0000 </r>
       <r>  -62.0046    1.0000 </r>
       <r>  -62.0044    1.0000 </r>
       <r>  -61.9125    1.0000 </r>
       <r>  -61.8934    1.0000 </r>
       <r>  -61.8850    1.0000 </r>
       <r>  -61.8804    1.0000 </r>
       <r>  -61.8768    1.0000 </r>
       <r>  -61.8465    1.0000 </r>
       <r>  -61.8210    1.0000 </r>
       <r>  -61.8210    1.0000 </r>
       <r>  -61.8120    1.0000 </r>
       <r>  -61.7829    1.0000 </r>
       <r>  -61.7792    1.0000 </r>
       <r>  -61.7673    1.0000 </r>
       <r>  -61.7044    1.0000 </r>
       <r>  -61.6623    1.0000 </r>
       <r>  -61.6041    1.0000 </r>
       <r>  -61.5853    1.0000 </r>
       <r>  -61.5646    1.0000 </r>
       <r>  -61.5078    1.0000 </r>
       <r>  -61.5002    1.0000 </r>
       <r>  -61.4690    1.0000 </r>
       <r>  -61.4380    1.0000 </r>
       <r>  -61.4285    1.0000 </r>
       <r>  -13.9439    1.0000 </r>
       <r>  -13.4116    1.0000 </r>
       <r>  -13.2045    1.0000 </r>
       <r>  -13.2013    1.0000 </r>
       <r>  -13.1620    1.0000 </r>
       <r>  -13.0080    1.0000 </r>
       <r>  -12.9953    1.0000 </r>
       <r>  -12.8431    1.0000 </r>
       <r>  -12.7311    1.0000 </r>
       <r>  -12.7068    1.0000 </r>
       <r>  -12.6928    1.0000 </r>
       <r>  -12.6875    1.0000 </r>
       <r>  -12.6183    1.0000 </r>
       <r>  -12.5833    1.0000 </r>
       <r>  -12.4469    1.0000 </r>
       <r>  -12.2562    1.0000 </r>
       <r>  -12.2494    1.0000 </r>
       <r>  -12.2467    1.0000 </r>
       <r>  -12.2071    1.0000 </r>
       <r>  -12.2055    1.0000 </r>
       <r>  -12.1409    1.0000 </r>
       <r>  -12.0547    1.0000 </r>
       <r>  -12.0118    1.0000 </r>
       <r>  -12.0069    1.0000 </r>
       <r>  -11.9728    1.0000 </r>
       <r>  -11.9298    1.0000 </r>
       <r>  -11.9193    1.0000 </r>
       <r>  -11.9121    1.0000 </r>
       <r>  -11.9019    1.0000 </r>
       <r>  -11.8695    1.0000 </r>
       <r>  -11.8412    1.0000 </r>
       <r>  -11.7735    1.0000 </r>
       <r>  -11.7367    1.0000 </r>
       <r>  -11.6078    1.0000 </r>
       <r>  -11.5961    1.0000 </r>
       <r>  -11.5032    1.0000 </r>
       <r>  -11.4781    1.0000 </r>
       <r>  -11.2266    1.0000 </r>
       <r>  -11.1173    1.0000 </r>
       <r>  -11.0716    1.0000 </r>
       <r>  -10.8681    1.0000 </r>
       <r>  -10.7105    1.0000 </r>
       <r>  -10.6958    1.0000 </r>
       <r>  -10.6810    1.0000 </r>
       <r>  -10.6792    1.0000 </r>
       <r>  -10.6593    1.0000 </r>
       <r>  -10.3190    1.0000 </r>
       <r>  -10.2115    1.0000 </r>
       <r>   -5.7264    1.0000 </r>
       <r>   -5.7183    1.0000 </r>
       <r>   -5.7160    1.0000 </r>
       <r>   -5.7136    1.0000 </r>
       <r>   -5.6812    1.0000 </r>
       <r>   -5.6283    1.0000 </r>
       <r>   -5.3126    1.0000 </r>
       <r>   -5.2506    1.0000 </r>
       <r>   -5.2315    1.0000 </r>
       <r>   -5.0895    1.0000 </r>
       <r>   -4.9870    1.0000 </r>
       <r>   -4.9862    1.0000 </r>
       <r>   -4.9626    1.0000 </r>
       <r>   -4.9213    1.0000 </r>
       <r>   -4.8998    1.0000 </r>
       <r>   -4.8837    1.0000 </r>
       <r>   -4.8708    1.0000 </r>
       <r>   -4.7744    1.0000 </r>
       <r>   -4.6919    1.0000 </r>
       <r>   -4.6798    1.0000 </r>
       <r>   -4.5941    1.0000 </r>
       <r>   -4.5878    1.0000 </r>
       <r>   -4.5821    1.0000 </r>
       <r>   -4.5811    1.0000 </r>
       <r>   -4.5688    1.0000 </r>
       <r>   -4.5306    1.0000 </r>
       <r>   -4.5234    1.0000 </r>
       <r>   -4.4743    1.0000 </r>
       <r>   -4.4647    1.0000 </r>
       <r>   -4.4391    1.0000 </r>
       <r>   -4.3726    1.0000 </r>
       <r>   -4.3305    1.0000 </r>
       <r>   -4.3247    1.0000 </r>
       <r>   -4.3128    1.0000 </r>
       <r>   -4.2909    1.0000 </r>
       <r>   -4.2331    1.0000 </r>
       <r>   -4.2296    1.0000 </r>
       <r>   -4.0542    1.0000 </r>
       <r>   -3.9315    1.0000 </r>
       <r>   -3.8596    1.0000 </r>
       <r>   -3.8150    1.0000 </r>
       <r>   -3.8003    1.0000 </r>
       <r>   -3.7855    1.0000 </r>
       <r>   -3.7701    1.0000 </r>
       <r>   -3.7364    1.0000 </r>
       <r>   -3.7214    1.0000 </r>
       <r>   -3.7029    1.0000 </r>
       <r>   -3.6730    1.0000 </r>
       <r>   -3.6506    1.0000 </r>
       <r>   -3.6298    1.0000 </r>
       <r>   -3.5323    1.0000 </r>
       <r>   -3.5250    1.0000 </r>
       <r>   -3.5071    1.0000 </r>
       <r>   -3.4901    1.0000 </r>
       <r>   -3.4881    1.0000 </r>
       <r>   -3.4511    1.0000 </r>
       <r>   -3.4292    1.0000 </r>
       <r>   -3.3406    1.0000 </r>
       <r>   -3.3254    1.0000 </r>
       <r>   -3.3154    1.0000 </r>
       <r>   -3.2931    1.0000 </r>
       <r>   -3.2420    1.0000 </r>
       <r>   -3.1973    1.0000 </r>
       <r>   -3.1949    1.0000 </r>
       <r>   -3.1847    1.0000 </r>
       <r>   -3.1704    1.0000 </r>
       <r>   -3.1403    1.0000 </r>
       <r>   -3.1193    1.0000 </r>
       <r>   -3.0922    1.0000 </r>
       <r>   -3.0704    1.0000 </r>
       <r>   -3.0369    1.0000 </r>
       <r>   -3.0283    1.0000 </r>
       <r>   -3.0196    1.0000 </r>
       <r>   -2.9892    1.0000 </r>
       <r>   -2.9562    1.0000 </r>
       <r>   -2.9503    1.0000 </r>
       <r>   -2.9297    1.0000 </r>
       <r>   -2.9127    1.0000 </r>
       <r>   -2.8862    1.0000 </r>
       <r>   -2.8795    1.0000 </r>
       <r>   -2.8610    1.0000 </r>
       <r>   -2.8581    1.0000 </r>
       <r>   -2.7889    1.0000 </r>
       <r>   -2.7230    1.0000 </r>
       <r>   -2.7135    1.0000 </r>
       <r>   -2.6988    1.0000 </r>
       <r>   -2.6829    1.0000 </r>
       <r>   -2.6732    1.0000 </r>
       <r>   -2.6097    1.0000 </r>
       <r>   -2.5905    1.0000 </r>
       <r>   -2.5862    1.0000 </r>
       <r>   -2.5501    1.0000 </r>
       <r>   -2.5421    1.0000 </r>
       <r>   -2.5253    1.0000 </r>
       <r>   -2.5158    1.0000 </r>
       <r>   -2.4614    1.0000 </r>
       <r>   -2.4299    1.0000 </r>
       <r>   -2.4058    1.0000 </r>
       <r>   -2.3916    1.0000 </r>
       <r>   -2.3830    1.0000 </r>
       <r>   -2.3805    1.0000 </r>
       <r>   -2.3694    1.0000 </r>
       <r>   -2.3634    1.0000 </r>
       <r>   -2.3535    1.0000 </r>
       <r>   -2.3497    1.0000 </r>
       <r>   -2.3480    1.0000 </r>
       <r>   -2.2978    1.0000 </r>
       <r>   -2.2621    1.0000 </r>
       <r>   -2.2609    1.0000 </r>
       <r>   -2.2379    1.0000 </r>
       <r>   -2.2321    1.0000 </r>
       <r>   -2.2113    1.0000 </r>
       <r>   -2.2039    1.0000 </r>
       <r>   -2.1543    1.0000 </r>
       <r>   -2.1517    1.0000 </r>
       <r>   -2.1135    1.0000 </r>
       <r>   -2.0898    1.0000 </r>
       <r>   -2.0446    1.0000 </r>
       <r>   -2.0341    1.0000 </r>
       <r>   -1.9042    1.0000 </r>
       <r>   -1.8883    1.0000 </r>
       <r>   -1.8239    1.0000 </r>
       <r>   -1.7719    1.0000 </r>
       <r>   -1.7507    1.0000 </r>
       <r>   -1.6802    1.0000 </r>
       <r>   -1.6722    1.0000 </r>
       <r>   -1.6373    1.0000 </r>
       <r>   -1.6038    1.0000 </r>
       <r>   -1.5799    1.0000 </r>
       <r>   -1.5550    1.0000 </r>
       <r>   -1.5446    1.0000 </r>
       <r>   -1.5230    1.0000 </r>
       <r>   -1.4946    1.0000 </r>
       <r>   -1.4123    1.0000 </r>
       <r>   -1.3758    1.0000 </r>
       <r>   -1.3647    1.0000 </r>
       <r>   -1.3230    1.0000 </r>
       <r>   -1.3069    1.0000 </r>
       <r>   -1.2990    1.0000 </r>
       <r>   -1.2466    1.0000 </r>
       <r>   -1.2263    1.0000 </r>
       <r>   -1.2248    1.0000 </r>
       <r>   -1.2202    1.0000 </r>
       <r>   -1.2019    1.0000 </r>
       <r>   -1.1792    1.0000 </r>
       <r>   -1.1427    1.0000 </r>
       <r>   -1.1160    1.0000 </r>
       <r>   -1.1113    1.0000 </r>
       <r>   -1.0869    1.0000 </r>
       <r>   -1.0713    1.0000 </r>
       <r>   -1.0591    1.0000 </r>
       <r>   -1.0440    1.0000 </r>
       <r>   -1.0311    1.0000 </r>
       <r>   -1.0190    1.0000 </r>
       <r>   -0.9771    1.0000 </r>
       <r>   -0.9632    1.0000 </r>
       <r>   -0.9376    1.0000 </r>
       <r>   -0.9044    1.0000 </r>
       <r>   -0.8616    1.0000 </r>
       <r>   -0.8523    1.0000 </r>
       <r>   -0.8282    1.0000 </r>
       <r>   -0.8264    1.0000 </r>
       <r>   -0.7983    1.0000 </r>
       <r>   -0.7678    1.0000 </r>
       <r>   -0.7604    1.0000 </r>
       <r>   -0.7546    1.0000 </r>
       <r>   -0.7465    1.0000 </r>
       <r>   -0.7391    1.0000 </r>
       <r>   -0.7236    1.0000 </r>
       <r>   -0.7159    1.0000 </r>
       <r>   -0.7074    1.0000 </r>
       <r>   -0.6974    1.0000 </r>
       <r>   -0.6831    1.0000 </r>
       <r>   -0.6803    1.0000 </r>
       <r>   -0.6731    1.0000 </r>
       <r>   -0.6535    1.0000 </r>
       <r>   -0.6483    1.0000 </r>
       <r>   -0.6393    1.0000 </r>
       <r>   -0.6147    1.0000 </r>
       <r>   -0.6004    1.0000 </r>
       <r>   -0.5832    1.0000 </r>
       <r>   -0.5721    1.0000 </r>
       <r>   -0.5636    1.0000 </r>
       <r>   -0.5482    1.0000 </r>
       <r>   -0.5449    1.0000 </r>
       <r>   -0.5299    1.0000 </r>
       <r>   -0.5224    1.0000 </r>
       <r>   -0.4960    1.0000 </r>
       <r>   -0.4874    1.0000 </r>
       <r>   -0.4730    1.0000 </r>
       <r>   -0.4652    1.0000 </r>
       <r>   -0.4634    1.0000 </r>
       <r>   -0.4542    1.0000 </r>
       <r>   -0.4357    1.0000 </r>
       <r>   -0.4213    1.0000 </r>
       <r>   -0.3989    1.0000 </r>
       <r>   -0.3870    1.0000 </r>
       <r>   -0.3763    1.0000 </r>
       <r>   -0.3697    1.0000 </r>
       <r>   -0.3406    1.0000 </r>
       <r>   -0.3376    1.0000 </r>
       <r>   -0.3225    1.0000 </r>
       <r>   -0.3136    1.0000 </r>
       <r>   -0.2961    1.0000 </r>
       <r>   -0.2842    1.0000 </r>
       <r>   -0.2803    1.0000 </r>
       <r>   -0.2657    1.0000 </r>
       <r>   -0.2609    1.0000 </r>
       <r>   -0.2546    1.0000 </r>
       <r>   -0.2471    1.0000 </r>
       <r>   -0.2358    1.0000 </r>
       <r>   -0.2315    1.0000 </r>
       <r>   -0.2103    1.0000 </r>
       <r>   -0.1983    1.0000 </r>
       <r>   -0.1901    1.0000 </r>
       <r>   -0.1888    1.0000 </r>
       <r>   -0.1772    1.0000 </r>
       <r>   -0.1698    1.0000 </r>
       <r>   -0.1649    1.0000 </r>
       <r>   -0.1462    1.0000 </r>
       <r>   -0.1418    1.0000 </r>
       <r>   -0.1347    1.0000 </r>
       <r>   -0.1306    1.0000 </r>
       <r>   -0.1233    1.0000 </r>
       <r>   -0.1165    1.0000 </r>
       <r>   -0.0985    1.0000 </r>
       <r>   -0.0939    1.0000 </r>
       <r>   -0.0916    1.0000 </r>
       <r>   -0.0813    1.0000 </r>
       <r>   -0.0786    1.0000 </r>
       <r>   -0.0645    1.0000 </r>
       <r>   -0.0598    1.0000 </r>
       <r>   -0.0513    1.0000 </r>
       <r>   -0.0431    1.0000 </r>
       <r>   -0.0373    1.0000 </r>
       <r>   -0.0335    1.0000 </r>
       <r>   -0.0229    1.0000 </r>
       <r>   -0.0144    1.0000 </r>
       <r>    0.0015    1.0000 </r>
       <r>    0.0130    1.0000 </r>
       <r>    0.0166    1.0000 </r>
       <r>    0.0282    1.0000 </r>
       <r>    0.0303    1.0000 </r>
       <r>    0.0414    1.0000 </r>
       <r>    0.0501    1.0000 </r>
       <r>    0.0601    1.0000 </r>
       <r>    0.0625    1.0000 </r>
       <r>    0.0747    1.0000 </r>
       <r>    0.0809    1.0000 </r>
       <r>    0.0865    1.0000 </r>
       <r>    0.0969    1.0000 </r>
       <r>    0.1187    1.0000 </r>
       <r>    0.1286    1.0000 </r>
       <r>    0.1318    1.0000 </r>
       <r>    0.1487    1.0000 </r>
       <r>    0.1554    1.0000 </r>
       <r>    0.1705    1.0000 </r>
       <r>    0.1741    1.0000 </r>
       <r>    0.1906    1.0000 </r>
       <r>    0.1931    1.0000 </r>
       <r>    0.1988    1.0000 </r>
       <r>    0.1999    1.0000 </r>
       <r>    0.2045    1.0000 </r>
       <r>    0.2103    1.0000 </r>
       <r>    0.2129    1.0000 </r>
       <r>    0.2166    1.0000 </r>
       <r>    0.2297    1.0000 </r>
       <r>    0.2440    1.0000 </r>
       <r>    0.2517    1.0000 </r>
       <r>    0.2587    1.0000 </r>
       <r>    0.2770    1.0000 </r>
       <r>    0.2952    1.0000 </r>
       <r>    0.3089    1.0000 </r>
       <r>    0.3115    1.0000 </r>
       <r>    0.3285    1.0000 </r>
       <r>    0.3349    1.0000 </r>
       <r>    0.3384    1.0000 </r>
       <r>    0.3672    1.0000 </r>
       <r>    0.3740    1.0000 </r>
       <r>    0.3855    1.0000 </r>
       <r>    0.4040    1.0000 </r>
       <r>    0.4170    1.0000 </r>
       <r>    0.4300    1.0000 </r>
       <r>    0.4367    1.0000 </r>
       <r>    0.4502    1.0000 </r>
       <r>    0.4597    1.0000 </r>
       <r>    0.4831    1.0000 </r>
       <r>    0.4927    1.0000 </r>
       <r>    0.5024    1.0000 </r>
       <r>    0.5328    1.0000 </r>
       <r>    0.5405    1.0000 </r>
       <r>    0.5643    1.0000 </r>
[...]
       <r>   -58.1176     0.0000   288.0000 </r>
       <r>   -57.8588     0.0000   288.0000 </r>
       <r>   -57.6000     0.0000   288.0000 </r>
       <r>   -57.3413     0.0000   288.0000 </r>
       <r>   -57.0825     0.0000   288.0000 </r>
       <r>   -56.8237     0.0000   288.0000 </r>
       <r>   -56.5649     0.0000   288.0000 </r>
       <r>   -56.3061     0.0000   288.0000 </r>
       <r>   -56.0474     0.0000   288.0000 </r>
       <r>   -55.7886     0.0000   288.0000 </r>
       <r>   -55.5298     0.0000   288.0000 </r>
       <r>   -55.2710     0.0000   288.0000 </r>
       <r>   -55.0122     0.0000   288.0000 </r>
       <r>   -54.7534     0.0000   288.0000 </r>
       <r>   -54.4947     0.0000   288.0000 </r>
       <r>   -54.2359     0.0000   288.0000 </r>
       <r>   -53.9771     0.0000   288.0000 </r>
       <r>   -53.7183     0.0000   288.0000 </r>
       <r>   -53.4595     0.0000   288.0000 </r>
       <r>   -53.2008     0.0000   288.0000 </r>
       <r>   -52.9420     0.0000   288.0000 </r>
       <r>   -52.6832     0.0000   288.0000 </r>
       <r>   -52.4244     0.0000   288.0000 </r>
       <r>   -52.1656     0.0000   288.0000 </r>
       <r>   -51.9069     0.0000   288.0000 </r>
       <r>   -51.6481     0.0000   288.0000 </r>
       <r>   -51.3893     0.0000   288.0000 </r>
       <r>   -51.1305     0.0000   288.0000 </r>
       <r>   -50.8717     0.0000   288.0000 </r>
       <r>   -50.6130     0.0000   288.0000 </r>
       <r>   -50.3542     0.0000   288.0000 </r>
       <r>   -50.0954     0.0000   288.0000 </r>
       <r>   -49.8366     0.0000   288.0000 </r>
       <r>   -49.5778     0.0000   288.0000 </r>
       <r>   -49.3190     0.0000   288.0000 </r>
       <r>   -49.0603     0.0000   288.0000 </r>
       <r>   -48.8015     0.0000   288.0000 </r>
       <r>   -48.5427     0.0000   288.0000 </r>
       <r>   -48.2839     0.0000   288.0000 </r>
       <r>   -48.0251     0.0000   288.0000 </r>
       <r>   -47.7664     0.0000   288.0000 </r>
       <r>   -47.5076     0.0000   288.0000 </r>
       <r>   -47.2488     0.0000   288.0000 </r>
       <r>   -46.9900     0.0000   288.0000 </r>
       <r>   -46.7312     0.0000   288.0000 </r>
       <r>   -46.4725     0.0000   288.0000 </r>
       <r>   -46.2137     0.0000   288.0000 </r>
       <r>   -45.9549     0.0000   288.0000 </r>
       <r>   -45.6961     0.0000   288.0000 </r>
       <r>   -45.4373     0.0000   288.0000 </r>
       <r>   -45.1786     0.0000   288.0000 </r>
       <r>   -44.9198     0.0000   288.0000 </r>
       <r>   -44.6610     0.0000   288.0000 </r>
       <r>   -44.4022     0.0000   288.0000 </r>
       <r>   -44.1434     0.0000   288.0000 </r>
       <r>   -43.8846     0.0000   288.0000 </r>
       <r>   -43.6259     0.0000   288.0000 </r>
       <r>   -43.3671     0.0000   288.0000 </r>
       <r>   -43.1083     0.0000   288.0000 </r>
       <r>   -42.8495     0.0000   288.0000 </r>
       <r>   -42.5907     0.0000   288.0000 </r>
       <r>   -42.3320     0.0000   288.0000 </r>
       <r>   -42.0732     0.0000   288.0000 </r>
       <r>   -41.8144     0.0000   288.0000 </r>
       <r>   -41.5556     0.0000   288.0000 </r>
       <r>   -41.2968     0.0000   288.0000 </r>
       <r>   -41.0381     0.0000   288.0000 </r>
       <r>   -40.7793     0.0000   288.0000 </r>
       <r>   -40.5205     0.0000   288.0000 </r>
       <r>   -40.2617     0.0000   288.0000 </r>
       <r>   -40.0029     0.0000   288.0000 </r>
       <r>   -39.7442     0.0000   288.0000 </r>
       <r>   -39.4854     0.0000   288.0000 </r>
       <r>   -39.2266     0.0000   288.0000 </r>
       <r>   -38.9678     0.0000   288.0000 </r>
       <r>   -38.7090     0.0000   288.0000 </r>
       <r>   -38.4502     0.0000   288.0000 </r>
       <r>   -38.1915     0.0000   288.0000 </r>
       <r>   -37.9327     0.0000   288.0000 </r>
       <r>   -37.6739     0.0000   288.0000 </r>
       <r>   -37.4151     0.0000   288.0000 </r>
       <r>   -37.1563     0.0000   288.0000 </r>
       <r>   -36.8976     0.0000   288.0000 </r>
       <r>   -36.6388     0.0000   288.0000 </r>
       <r>   -36.3800     0.0000   288.0000 </r>
       <r>   -36.1212     0.0000   288.0000 </r>
       <r>   -35.8624     0.0000   288.0000 </r>
       <r>   -35.6037     0.0000   288.0000 </r>
       <r>   -35.3449     0.0000   288.0000 </r>
       <r>   -35.0861     0.0000   288.0000 </r>
       <r>   -34.8273     0.0000   288.0000 </r>
       <r>   -34.5685     0.0000   288.0000 </r>
       <r>   -34.3098     0.0000   288.0000 </r>
       <r>   -34.0510     0.0000   288.0000 </r>
       <r>   -33.7922     0.0000   288.0000 </r>
       <r>   -33.5334     0.0000   288.0000 </r>
       <r>   -33.2746     0.0000   288.0000 </r>
       <r>   -33.0158     0.0000   288.0000 </r>
       <r>   -32.7571     0.0000   288.0000 </r>
       <r>   -32.4983     0.0000   288.0000 </r>
       <r>   -32.2395     0.0000   288.0000 </r>
       <r>   -31.9807     0.0000   288.0000 </r>
       <r>   -31.7219     0.0000   288.0000 </r>
       <r>   -31.4632     0.0000   288.0000 </r>
       <r>   -31.2044     0.0000   288.0000 </r>
       <r>   -30.9456     0.0000   288.0000 </r>
       <r>   -30.6868     0.0000   288.0000 </r>
       <r>   -30.4280     0.0000   288.0000 </r>
       <r>   -30.1693     0.0000   288.0000 </r>
       <r>   -29.9105     0.0000   288.0000 </r>
       <r>   -29.6517     0.0000   288.0000 </r>
       <r>   -29.3929     0.0000   288.0000 </r>
       <r>   -29.1341     0.0000   288.0000 </r>
       <r>   -28.8754     0.0000   288.0000 </r>
       <r>   -28.6166     0.0000   288.0000 </r>
       <r>   -28.3578     0.0000   288.0000 </r>
       <r>   -28.0990     0.0000   288.0000 </r>
       <r>   -27.8402     0.0000   288.0000 </r>
       <r>   -27.5815     0.0000   288.0000 </r>
       <r>   -27.3227     0.0000   288.0000 </r>
       <r>   -27.0639     0.0000   288.0000 </r>
       <r>   -26.8051     0.0000   288.0000 </r>
       <r>   -26.5463     0.0000   288.0000 </r>
       <r>   -26.2875     0.0000   288.0000 </r>
       <r>   -26.0288     0.0000   288.0000 </r>
       <r>   -25.7700     0.0000   288.0000 </r>
       <r>   -25.5112     0.0000   288.0000 </r>
       <r>   -25.2524     0.0000   288.0000 </r>
       <r>   -24.9936     0.0000   288.0000 </r>
       <r>   -24.7349     0.0000   288.0000 </r>
       <r>   -24.4761     0.0000   288.0000 </r>
       <r>   -24.2173     0.0000   288.0000 </r>
       <r>   -23.9585     0.0000   288.0000 </r>
       <r>   -23.6997     0.0000   288.0000 </r>
       <r>   -23.4410     0.0000   288.0000 </r>
       <r>   -23.1822     0.0000   288.0000 </r>
       <r>   -22.9234     0.0000   288.0000 </r>
       <r>   -22.6646     0.0000   288.0000 </r>
       <r>   -22.4058     0.0000   288.0000 </r>
       <r>   -22.1471     0.0000   288.0000 </r>
       <r>   -21.8883     0.0000   288.0000 </r>
       <r>   -21.6295     0.0000   288.0000 </r>
       <r>   -21.3707     0.0000   288.0000 </r>
       <r>   -21.1119     0.0000   288.0000 </r>
       <r>   -20.8531     0.0000   288.0000 </r>
       <r>   -20.5944     0.0000   288.0000 </r>
       <r>   -20.3356     0.0000   288.0000 </r>
       <r>   -20.0768     0.0000   288.0000 </r>
       <r>   -19.8180     0.0000   288.0000 </r>
       <r>   -19.5592     0.0000   288.0000 </r>
       <r>   -19.3005     0.0000   288.0000 </r>
       <r>   -19.0417     0.0000   288.0000 </r>
       <r>   -18.7829     0.0000   288.0000 </r>
       <r>   -18.5241     0.0000   288.0000 </r>
       <r>   -18.2653     0.0000   288.0000 </r>
       <r>   -18.0066     0.0000   288.0000 </r>
       <r>   -17.7478     0.0000   288.0000 </r>
       <r>   -17.4890     0.0000   288.0000 </r>
       <r>   -17.2302     0.0000   288.0000 </r>
       <r>   -16.9714     0.0000   288.0000 </r>
       <r>   -16.7127     0.0000   288.0000 </r>
       <r>   -16.4539     0.0000   288.0000 </r>
       <r>   -16.1951     0.0000   288.0000 </r>
       <r>   -15.9363     0.0000   288.0000 </r>
       <r>   -15.6775     0.0000   288.0000 </r>
       <r>   -15.4187     0.0000   288.0000 </r>
       <r>   -15.1600     0.0000   288.0000 </r>
       <r>   -14.9012     0.0000   288.0000 </r>
       <r>   -14.6424     0.0000   288.0000 </r>
       <r>   -14.3836     0.0072   288.0019 </r>
       <r>   -14.1248     0.7683   288.2007 </r>
       <r>   -13.8661     4.7086   289.4192 </r>
       <r>   -13.6073     2.8601   290.1593 </r>
       <r>   -13.3485     7.7585   292.1671 </r>
       <r>   -13.0897    21.3727   297.6979 </r>
       <r>   -12.8309    25.4932   304.2951 </r>
       <r>   -12.5722    34.8545   313.3148 </r>
       <r>   -12.3134    28.9535   320.8074 </r>
       <r>   -12.0546    47.7240   333.1574 </r>
       <r>   -11.7958    59.0886   348.4484 </r>
       <r>   -11.5370    36.4842   357.8898 </r>
       <r>   -11.2783    18.9829   362.8022 </r>
       <r>   -11.0195    16.3471   367.0325 </r>
       <r>   -10.7607    21.1015   372.4932 </r>
       <r>   -10.5019    26.0492   379.2342 </r>
       <r>   -10.2431    11.5438   382.2216 </r>
       <r>    -9.9843     6.3845   383.8737 </r>
       <r>    -9.7256     0.4855   383.9994 </r>
       <r>    -9.4668     0.0024   384.0000 </r>
       <r>    -9.2080     0.0000   384.0000 </r>
       <r>    -8.9492     0.0000   384.0000 </r>
       <r>    -8.6904     0.0000   384.0000 </r>
       <r>    -8.4317     0.0000   384.0000 </r>
       <r>    -8.1729     0.0000   384.0000 </r>
       <r>    -7.9141     0.0000   384.0000 </r>
       <r>    -7.6553     0.0000   384.0000 </r>
       <r>    -7.3965     0.0000   384.0000 </r>
       <r>    -7.1378     0.0000   384.0000 </r>
       <r>    -6.8790     0.0000   384.0000 </r>
       <r>    -6.6202     0.0000   384.0000 </r>
       <r>    -6.3614     0.0001   384.0000 </r>
       <r>    -6.1026     0.1168   384.0303 </r>
       <r>    -5.8439     7.1535   385.8815 </r>
       <r>    -5.5851    29.2337   393.4466 </r>
       <r>    -5.3263    17.9727   398.0976 </r>
       <r>    -5.0675    27.2194   405.1414 </r>
       <r>    -4.8087    47.0733   417.3231 </r>
       <r>    -4.5499    60.6736   433.0243 </r>
       <r>    -4.2912    66.7759   450.3046 </r>
       <r>    -4.0324    36.5522   459.7636 </r>
       <r>    -3.7736    44.2677   471.2193 </r>
       <r>    -3.5148    69.3556   489.1672 </r>
       <r>    -3.2560    71.5542   507.6840 </r>
       <r>    -2.9973    87.3515   530.2889 </r>
       <r>    -2.7385    86.1355   552.5792 </r>
       <r>    -2.4797    89.3124   575.6915 </r>
       <r>    -2.2209   107.0735   603.4001 </r>
       <r>    -1.9621    69.8939   621.4873 </r>
       <r>    -1.7034    48.5044   634.0393 </r>
       <r>    -1.4446    63.8514   650.5628 </r>
       <r>    -1.1858    82.2614   671.8505 </r>
       <r>    -0.9270   101.0878   698.0101 </r>
       <r>    -0.6682   132.3854   732.2689 </r>
       <r>    -0.4095   164.2886   774.7837 </r>
       <r>    -0.1507   196.5977   825.6594 </r>
       <r>     0.1081   230.2388   885.2408 </r>
       <r>     0.3669   201.4243   937.3656 </r>
       <r>     0.6257   148.8803   975.8930 </r>
       <r>     0.8845   117.7707  1006.3698 </r>
       <r>     1.1432    87.9374  1029.1263 </r>
       <r>     1.4020    74.9859  1048.5312 </r>
       <r>     1.6608    67.3113  1065.9501 </r>
       <r>     1.9196    65.0190  1082.7758 </r>
       <r>     2.1784    74.8942  1102.1570 </r>
       <r>     2.4371    82.0167  1123.3814 </r>
       <r>     2.6959    73.3279  1142.3572 </r>
       <r>     2.9547    34.7634  1151.3533 </r>
       <r>     3.2135     9.7471  1153.8757 </r>
       <r>     3.4723     6.6510  1155.5968 </r>
       <r>     3.7310     7.3697  1157.5040 </r>
       <r>     3.9898     1.8763  1157.9895 </r>
       <r>     4.2486     0.5179  1158.1236 </r>
       <r>     4.5074     8.6680  1160.3667 </r>
       <r>     4.7662    17.5247  1164.9018 </r>
       <r>     5.0249    16.0519  1169.0557 </r>
       <r>     5.2837    18.4629  1173.8335 </r>
       <r>     5.5425    20.1149  1179.0389 </r>
       <r>     5.8013    20.5060  1184.3455 </r>
       <r>     6.0601    25.9801  1191.0686 </r>
       <r>     6.3188    37.0702  1200.6617 </r>
       <r>     6.5776    34.9237  1209.6992 </r>
       <r>     6.8364    34.6016  1218.6535 </r>
       <r>     7.0952    41.0727  1229.2823 </r>
       <r>     7.3540    52.5247  1242.8747 </r>
       <r>     7.6128    51.8812  1256.3006 </r>
       <r>     7.8715    56.5917  1270.9454 </r>
       <r>     8.1303    32.1487  1279.2649 </r>
       <r>     8.3891     2.8199  1279.9946 </r>
       <r>     8.6479     0.0207  1280.0000 </r>
       <r>     8.9067     0.0000  1280.0000 </r>
       <r>     9.1654     0.0000  1280.0000 </r>
       <r>     9.4242     0.0000  1280.0000 </r>
       <r>     9.6830     0.0000  1280.0000 </r>
       <r>     9.9418     0.0000  1280.0000 </r>
       <r>    10.2006     0.0000  1280.0000 </r>
       <r>    10.4593     0.0000  1280.0000 </r>
       <r>    10.7181     0.0000  1280.0000 </r>
       <r>    10.9769     0.0000  1280.0000 </r>
       <r>    11.2357     0.0000  1280.0000 </r>
       <r>    11.4945     0.0000  1280.0000 </r>
      </set>
     </set>
    </array>
   </total>
  </dos>
 </calculation>
 <structure name="finalpos" >
  <crystal>
   <varray name="basis" >
    <v>      10.06282034       5.04456212       0.00000000 </v>
    <v>       0.00000000      11.25646304       0.00000000 </v>
    <v>       0.00000000       0.00000000      21.74423184 </v>
   </varray>
   <i name="volume">   2463.00752351 </i>
   <varray name="rec_basis" >
    <v>       0.09937572       0.00000000       0.00000000 </v>
    <v>      -0.04453504       0.08883785       0.00000000 </v>
    <v>       0.00000000       0.00000000       0.04598921 </v>
   </varray>
  </crystal>
  <varray name="positions" >
   <v>       0.26092070       0.47878036       0.25332799 </v>
   <v>       0.35488056       0.38482049       0.38835497 </v>
   <v>       0.44884043       0.29086063       0.52338195 </v>
   <v>       0.16696083       0.07274024       0.11830101 </v>
   <v>       0.05611868       0.05147940       0.48770701 </v>
   <v>       0.27423907       0.33335899       0.08262607 </v>
   <v>       0.36819893       0.23939913       0.21765305 </v>
   <v>       0.46215880       0.14543926       0.35268003 </v>
   <v>       0.00030194       0.37150212       0.21765305 </v>
   <v>       0.09426181       0.27754226       0.35268003 </v>
   <v>       0.18822168       0.18358239       0.48770701 </v>
   <v>       0.40634206       0.46546199       0.08262607 </v>
   <v>       0.76092070       0.47878036       0.25332799 </v>
   <v>       0.85488056       0.38482049       0.38835497 </v>
   <v>       0.94884043       0.29086063       0.52338195 </v>
   <v>       0.66696083       0.07274024       0.11830101 </v>
   <v>       0.55611868       0.05147940       0.48770701 </v>
   <v>       0.77423907       0.33335899       0.08262607 </v>
   <v>       0.86819893       0.23939913       0.21765305 </v>
   <v>       0.96215880       0.14543926       0.35268003 </v>
   <v>       0.50030194       0.37150212       0.21765305 </v>
   <v>       0.59426181       0.27754226       0.35268003 </v>
   <v>       0.68822168       0.18358239       0.48770701 </v>
   <v>       0.90634206       0.46546199       0.08262607 </v>
   <v>       0.26092070       0.97878036       0.25332799 </v>
   <v>       0.35488056       0.88482049       0.38835497 </v>
   <v>       0.44884043       0.79086063       0.52338195 </v>
   <v>       0.16696083       0.57274024       0.11830101 </v>
   <v>       0.05611868       0.55147940       0.48770701 </v>
   <v>       0.27423907       0.83335899       0.08262607 </v>
   <v>       0.36819893       0.73939913       0.21765305 </v>
   <v>       0.46215880       0.64543926       0.35268003 </v>
   <v>       0.00030194       0.87150212       0.21765305 </v>
   <v>       0.09426181       0.77754226       0.35268003 </v>
   <v>       0.18822168       0.68358239       0.48770701 </v>
   <v>       0.40634206       0.96546199       0.08262607 </v>
   <v>       0.76092070       0.97878036       0.25332799 </v>
   <v>       0.85488056       0.88482049       0.38835497 </v>
   <v>       0.94884043       0.79086063       0.52338195 </v>
   <v>       0.66696083       0.57274024       0.11830101 </v>
   <v>       0.55611868       0.55147940       0.48770701 </v>
   <v>       0.77423907       0.83335899       0.08262607 </v>
   <v>       0.86819893       0.73939913       0.21765305 </v>
   <v>       0.96215880       0.64543926       0.35268003 </v>
   <v>       0.50030194       0.87150212       0.21765305 </v>
   <v>       0.59426181       0.77754226       0.35268003 </v>
   <v>       0.68822168       0.68358239       0.48770701 </v>
   <v>       0.90634206       0.96546199       0.08262607 </v>
   <v>       0.07287763       0.16682343       0.27005396 </v>
   <v>       0.16683750       0.07286357       0.40508094 </v>
   <v>       0.47891775       0.26078330       0.13502698 </v>
   <v>       0.26079737       0.47890369       0.54010792 </v>
   <v>       0.03023342       0.37768264       0.45050807 </v>
   <v>       0.43627354       0.47164251       0.31548109 </v>
   <v>       0.24835381       0.15956225       0.04542713 </v>
   <v>       0.34231368       0.06560239       0.18045411 </v>
   <v>       0.17409868       0.39738738       0.18045411 </v>
   <v>       0.26805855       0.30342751       0.31548109 </v>
   <v>       0.36201842       0.20946764       0.45050807 </v>
   <v>       0.57287763       0.16682343       0.27005396 </v>
   <v>       0.66683750       0.07286357       0.40508094 </v>
   <v>       0.88495789       0.35474317       0.00000000 </v>
   <v>       0.97891775       0.26078330       0.13502698 </v>
   <v>       0.76079737       0.47890369       0.54010792 </v>
   <v>       0.53023342       0.37768264       0.45050807 </v>
   <v>       0.93627354       0.47164251       0.31548109 </v>
   <v>       0.74835381       0.15956225       0.04542713 </v>
   <v>       0.84231368       0.06560239       0.18045411 </v>
   <v>       0.58013882       0.49134725       0.04542713 </v>
   <v>       0.67409868       0.39738738       0.18045411 </v>
   <v>       0.76805855       0.30342751       0.31548109 </v>
   <v>       0.86201842       0.20946764       0.45050807 </v>
   <v>       0.07287763       0.66682343       0.27005396 </v>
   <v>       0.16683750       0.57286357       0.40508094 </v>
   <v>       0.47891775       0.76078330       0.13502698 </v>
   <v>       0.26079737       0.97890369       0.54010792 </v>
   <v>       0.03023342       0.87768264       0.45050807 </v>
   <v>       0.43627354       0.97164251       0.31548109 </v>
   <v>       0.34231368       0.56560239       0.18045411 </v>
   <v>       0.08013882       0.99134725       0.04542713 </v>
   <v>       0.17409868       0.89738738       0.18045411 </v>
   <v>       0.26805855       0.80342751       0.31548109 </v>
   <v>       0.36201842       0.70946764       0.45050807 </v>
   <v>       0.57287763       0.66682343       0.27005396 </v>
   <v>       0.66683750       0.57286357       0.40508094 </v>
   <v>       0.88495789       0.85474317       0.00000000 </v>
   <v>       0.97891775       0.76078330       0.13502698 </v>
   <v>       0.76079737       0.97890369       0.54010792 </v>
   <v>       0.53023342       0.87768264       0.45050807 </v>
   <v>       0.93627354       0.97164251       0.31548109 </v>
   <v>       0.74835381       0.65956225       0.04542713 </v>
   <v>       0.84231368       0.56560239       0.18045411 </v>
   <v>       0.58013882       0.99134725       0.04542713 </v>
   <v>       0.67409868       0.89738738       0.18045411 </v>
   <v>       0.76805855       0.80342751       0.31548109 </v>
   <v>       0.86201842       0.70946764       0.45050807 </v>
  </varray>
 </structure>
</modeling>
