       N       E                     dE             d eps       ncg     rms          rms(c)
DAV:   1     0.626606502843E+04    0.62661E+04   -0.36207E+05   848   0.154E+03
DAV:   2     0.350228407401E+03   -0.59158E+04   -0.57152E+04   728   0.486E+02
DAV:   3    -0.253597185396E+03   -0.60383E+03   -0.57170E+03   824   0.158E+02
DAV:   4    -0.289169566535E+03   -0.35572E+02   -0.35157E+02   848   0.348E+01
DAV:   5    -0.290137090609E+03   -0.96752E+00   -0.96618E+00   824   0.605E+00    0.696E+01
DAV:   6    -0.368659970058E+03   -0.78523E+02   -0.77241E+02   848   0.127E+02    0.146E+02
DAV:   7    -0.272189999637E+03    0.96470E+02   -0.14607E+02   808   0.664E+01    0.602E+01
DAV:   8    -0.305360864628E+03   -0.33171E+02   -0.14708E+02   968   0.803E+01    0.108E+02
DAV:   9    -0.263053036358E+03    0.42308E+02   -0.54386E+01   904   0.347E+01    0.483E+01
DAV:  10    -0.263774139235E+03   -0.72110E+00   -0.53032E+01   952   0.399E+01    0.466E+01
DAV:  11    -0.266482939291E+03   -0.27088E+01   -0.48523E+01   936   0.364E+01    0.589E+01
DAV:  12    -0.258848557964E+03    0.76344E+01   -0.32234E+01   944   0.278E+01    0.288E+01
DAV:  13    -0.253524464084E+03    0.53241E+01   -0.97395E+00   928   0.232E+01    0.177E+01
DAV:  14    -0.255578001845E+03   -0.20535E+01   -0.80936E+00   944   0.197E+01    0.288E+01
DAV:  15    -0.253427927635E+03    0.21501E+01   -0.95437E+00   912   0.116E+01    0.168E+01
DAV:  16    -0.252346622296E+03    0.10813E+01   -0.10060E+00   944   0.742E+00    0.103E+01
DAV:  17    -0.252216804865E+03    0.12982E+00   -0.43201E-01   944   0.404E+00    0.934E+00
DAV:  18    -0.252180863105E+03    0.35942E-01   -0.51665E-01   872   0.482E+00    0.903E+00
DAV:  19    -0.252107634918E+03    0.73228E-01   -0.41399E-01   928   0.465E+00    0.857E+00
DAV:  20    -0.251947414840E+03    0.16022E+00   -0.42002E-01  1024   0.520E+00    0.728E+00
DAV:  21    -0.251795635651E+03    0.15178E+00   -0.29072E-01   928   0.347E+00    0.351E+00
DAV:  22    -0.251774595954E+03    0.21040E-01   -0.10999E-01   920   0.240E+00    0.245E+00
DAV:  23    -0.251764736641E+03    0.98593E-02   -0.53488E-02   944   0.154E+00    0.183E+00
DAV:  24    -0.251771153520E+03   -0.64169E-02   -0.43087E-02   928   0.173E+00    0.213E+00
DAV:  25    -0.251761500617E+03    0.96529E-02   -0.55614E-02   944   0.166E+00    0.161E+00
DAV:  26    -0.251755619191E+03    0.58814E-02   -0.26852E-02   896   0.137E+00    0.106E+00
DAV:  27    -0.251754449771E+03    0.11694E-02   -0.11350E-02   944   0.764E-01    0.778E-01
DAV:  28    -0.251752988318E+03    0.14615E-02   -0.50071E-03   864   0.638E-01    0.512E-01
DAV:  29    -0.251752773153E+03    0.21517E-03   -0.22135E-03   840   0.348E-01    0.349E-01
DAV:  30    -0.251752585112E+03    0.18804E-03   -0.12478E-03   752   0.282E-01    0.192E-01
DAV:  31    -0.251752988560E+03   -0.40345E-03   -0.71896E-04   640   0.187E-01    0.223E-01
DAV:  32    -0.251752966306E+03    0.22254E-04   -0.29680E-04   496   0.151E-01
   1 F= -.25175297E+03 E0= -.25129456E+03  d E =-.916805E+00
